# vtk DataFile Version 4.2
vtk output
ASCII
DATASET POLYDATA
POINTS 96 float
0 150.111 106.145 520 450.333 318.434 455 412.805 212.289 
455 487.861 106.145 390 300.222 212.289 130 150.111 106.145 
195 112.583 0 195 562.917 0 390 225.167 318.434 
260 225.167 318.434 260 0 318.434 390 600.444 106.145 
325 187.639 212.289 325 637.972 530.723 325 112.583 0 
130 75.0555 530.723 390 225.167 0 195 562.917 318.434 
195 37.5278 106.145 195 637.972 212.289 325 337.75 0 
195 337.75 0 195 412.805 530.723 130 525.389 530.723 
390 450.333 0 455 412.805 530.723 195 262.694 424.578 
130 375.278 424.578 195 412.805 212.289 325 637.972 212.289 
65 487.861 424.578 260 150.111 424.578 390 450.333 318.434 
390 0 318.434 65 562.917 318.434 130 450.333 318.434 
520 300.222 530.723 260 450.333 318.434 130 375.278 106.145 
130 600.444 106.145 130 300.222 212.289 390 150.111 106.145 
325 562.917 0 325 112.583 318.434 520 600.444 424.578 
520 225.167 318.434 585 487.861 106.145 325 487.861 424.578 
390 525.389 530.723 585 487.861 424.578 390 375.278 106.145 
585 262.694 424.578 455 112.583 318.434 520 600.444 106.145 
130 0 318.434 65 37.5278 424.578 260 525.389 212.289 
325 487.861 106.145 260 75.0555 530.723 65 187.639 212.289 
130 75.0555 212.289 390 375.278 424.578 260 525.389 530.723 
325 37.5278 106.145 520 375.278 424.578 390 525.389 212.289 
260 375.278 424.578 195 337.75 318.434 390 300.222 530.723 
195 187.639 530.723 325 187.639 530.723 0 300.222 530.723 
65 187.639 530.723 65 412.805 530.723 455 337.75 318.434 
325 337.75 318.434 260 600.444 424.578 455 637.972 212.289 
195 487.861 106.145 130 600.444 424.578 260 450.333 0 
455 637.972 530.723 520 375.278 106.145 455 262.694 106.145 
130 225.167 318.434 0 600.444 424.578 -65 562.917 318.434 
-65 637.972 530.723 520 450.333 0 130 525.389 212.289 
325 412.805 530.723 260 300.222 530.723 130 300.222 530.723 
65 262.694 424.578 0 225.167 318.434 455 562.917 0 

LINES 97 291
2 1 2 
2 2 3 
2 2 4 
2 0 5 
2 5 6 
2 42 7 
2 4 8 
2 8 9 
2 54 10 
2 3 11 
2 41 12 
2 81 13 
2 6 14 
2 58 15 
2 14 16 
2 34 17 
2 60 18 
2 39 19 
2 16 20 
2 20 21 
2 73 22 
2 62 23 
2 80 24 
2 36 25 
2 9 26 
2 26 27 
2 67 28 
2 19 29 
2 23 30 
2 43 31 
2 65 32 
2 10 33 
2 30 34 
2 27 35 
2 51 36 
2 35 37 
2 21 38 
2 7 39 
2 38 40 
2 63 41 
2 57 42 
2 12 43 
2 49 44 
2 52 45 
2 82 46 
2 37 47 
2 25 48 
2 64 49 
2 57 50 
2 45 51 
2 33 52 
2 46 53 
2 55 54 
2 15 55 
2 17 56 
2 56 57 
2 31 58 
2 40 59 
2 59 60 
2 32 61 
2 48 62 
2 18 63 
2 74 64 
2 29 65 
2 22 66 
2 66 67 
2 61 68 
2 70 69 
2 68 70 
2 72 71 
2 69 72 
2 71 73 
2 75 74 
2 66 75 
2 13 76 
2 53 77 
2 28 78 
2 76 79 
2 78 80 
2 44 81 
2 50 82 
2 50 83 
2 67 84 
2 79 85 
2 85 86 
2 85 87 
2 24 88 
2 28 89 
2 47 90 
2 90 91 
2 91 92 
2 92 93 
2 93 94 
2 94 84 
2 11 95 
2 95 88 
2 77 11 

CELL_DATA 97
FIELD FieldData 10
radius 1 97 float
13.6072 10.8 10.8 14.347 14.347 12.8248 10.8 10.8 14.347 
10.8 14.347 9.44941 14.347 14.347 14.347 14.347 14.347 12.8248 
14.347 14.347 12.8248 14.347 7.5 14.347 10.8 10.8 9.44941 
12.8248 14.347 14.347 12.8248 14.347 14.347 10.8 14.347 10.8 
14.347 12.8248 14.347 14.347 12.8248 14.347 9.44941 14.347 7.5 
10.8 14.347 9.44941 9.44941 14.347 14.347 7.5 14.347 14.347 
14.347 14.347 14.347 14.347 14.347 12.8248 14.347 14.347 9.44942 
12.8248 12.8248 10.8169 12.8248 12.8248 12.8248 12.8248 12.8248 12.8248 
9.44942 9.44942 9.44941 7.5 7.5 9.44941 7.5 9.44941 7.5 
7.5 7.5 9.44941 7.5 7.5 7.5 7.5 5.5 5.5 
5.5 5.5 5.5 5.5 5.5 5.5 5.5 
isCirculated 1 97 int
1 1 1 1 1 1 1 1 1 
1 1 0 1 1 1 1 1 1 
1 1 1 1 1 1 1 1 1 
1 1 1 1 1 1 1 1 1 
1 1 1 1 1 1 0 1 1 
1 1 0 1 1 1 1 1 1 
1 1 1 1 1 1 1 1 0 
1 1 1 1 1 1 1 1 1 
0 0 0 1 1 0 1 0 1 
0 1 0 0 0 1 0 1 1 
1 1 1 1 1 1 1 
isArtery 1 97 int
0 0 0 1 1 1 0 0 1 
0 1 1 1 1 1 1 1 1 
1 1 1 1 1 1 0 0 1 
1 1 1 1 1 1 0 1 0 
1 1 1 1 1 1 1 1 1 
0 1 1 1 1 1 1 1 1 
1 1 1 1 1 1 1 1 1 
1 1 1 1 1 1 1 1 1 
1 1 1 1 1 1 1 1 1 
1 1 1 1 1 1 1 0 0 
0 0 0 0 0 0 1 
isVein 1 97 int
1 1 1 0 0 0 1 1 0 
1 0 0 0 0 0 0 0 0 
0 0 0 0 0 0 1 1 0 
0 0 0 0 0 0 1 0 1 
0 0 0 0 0 0 0 0 0 
1 0 0 0 0 0 0 0 0 
0 0 0 0 0 0 0 0 0 
0 0 0 0 0 0 0 0 0 
0 0 0 0 0 0 0 0 0 
0 0 0 0 0 0 0 1 1 
1 1 1 1 1 1 0 
isCapillary 1 97 int
0 0 0 0 0 0 0 0 0 
0 0 0 0 0 0 0 0 0 
0 0 0 0 0 0 0 0 0 
0 0 0 0 0 0 0 0 0 
0 0 0 0 0 0 0 0 0 
0 0 0 0 0 0 0 0 0 
0 0 0 0 0 0 0 0 0 
0 0 0 0 0 0 0 0 0 
0 0 0 0 0 0 0 0 0 
0 0 0 0 0 0 0 1 1 
1 1 1 1 1 1 1 
IndexOfEdges2 1 97 int
0 1 2 3 4 5 6 7 8 
9 10 11 12 13 14 15 16 17 
18 19 20 21 22 23 24 25 26 
27 28 29 30 31 32 33 34 35 
36 37 38 39 40 41 42 43 44 
45 46 47 48 49 50 51 52 53 
54 55 56 57 58 59 60 61 62 
63 64 65 66 67 68 69 70 71 
72 73 74 75 76 77 78 79 80 
81 82 83 84 85 86 87 88 89 
90 91 92 93 94 95 96 
IndexOfEdges 2 97 int
1 2 2 3 2 4 0 5 5 
6 42 7 4 8 8 9 54 10 
3 11 41 12 81 13 6 14 58 
15 14 16 34 17 60 18 39 19 
16 20 20 21 73 22 62 23 80 
24 36 25 9 26 26 27 67 28 
19 29 23 30 43 31 65 32 10 
33 30 34 27 35 51 36 35 37 
21 38 7 39 38 40 63 41 57 
42 12 43 49 44 52 45 82 46 
37 47 25 48 64 49 57 50 45 
51 33 52 46 53 55 54 15 55 
17 56 56 57 31 58 40 59 59 
60 32 61 48 62 18 63 74 64 
29 65 22 66 66 67 61 68 70 
69 68 70 72 71 69 72 71 73 
75 74 66 75 13 76 53 77 28 
78 76 79 78 80 44 81 50 82 
50 83 67 84 79 85 85 86 85 
87 24 88 28 89 47 90 90 91 
91 92 92 93 93 94 94 84 11 
95 95 88 77 11 
hematocrit 1 97 float
0.37 0.377397 0.333231 0.37 0.37 0.352869 0.333231 0.333231 0.37 
0.377397 0.37 0 0.37 0.37 0.37 0.37 0.37 0.352869 
0.37 0.37 0.352869 0.37 0.363402 0.37 0.333231 0.333231 0.363402 
0.352869 0.37 0.37 0.352869 0.37 0.37 0.333231 0.37 0.333231 
0.37 0.352869 0.37 0.37 0.352869 0.37 0 0.37 0.385795 
0.333231 0.37 0 0.385795 0.37 0.37 0.385795 0.37 0.37 
0.37 0.37 0.37 0.37 0.37 0.352869 0.37 0.37 0 
0.352869 0.352869 0.352869 0.352869 0.352869 0.352869 0.352869 0.352869 0.352869 
0 0 0 0.385795 0.363402 0 0.363402 0 0.385795 
0 0.333231 0 0 0 0.363402 0 0.333231 0.333231 
0.333231 0.333231 0.333231 0.333231 0.363402 0.363402 0.385795 
flow 1 97 float
1.11381e+06 927274 186540 1.11381e+06 1.11381e+06 534322 186540 186540 1.11381e+06 
927274 1.11381e+06 0 1.11381e+06 1.11381e+06 1.11381e+06 1.11381e+06 1.11381e+06 534322 
1.11381e+06 1.11381e+06 534322 1.11381e+06 347782 1.11381e+06 186540 186540 347782 
534322 1.11381e+06 1.11381e+06 534322 1.11381e+06 1.11381e+06 186540 1.11381e+06 186540 
1.11381e+06 534322 1.11381e+06 1.11381e+06 534322 1.11381e+06 0 1.11381e+06 579491 
186540 1.11381e+06 0 579491 1.11381e+06 1.11381e+06 579491 1.11381e+06 1.11381e+06 
1.11381e+06 1.11381e+06 1.11381e+06 1.11381e+06 1.11381e+06 534322 1.11381e+06 1.11381e+06 0 
534322 534322 534322 534322 534322 534322 534322 534322 534322 
0 0 0 579491 347782 0 347782 0 579491 
0 186540 0 0 0 347782 0 186540 186540 
186540 186540 186540 186540 347782 347782 579491 
shearforce 1 97 float
13.9551 25.979 4.74717 11.7221 11.7221 7.87908 4.74717 4.74718 11.7222 
25.979 11.7222 0 11.7221 11.7222 11.7221 11.7222 11.7221 7.87908 
11.7221 11.7221 7.8791 11.7222 35.2133 11.7222 4.74718 4.74718 15.1656 
7.87908 11.7222 11.7222 7.87909 11.7222 11.7222 4.74718 11.7222 4.74718 
11.7221 7.87908 11.7221 11.7222 7.87907 11.7222 0 11.7222 62.2189 
4.74718 11.7222 0 26.6363 11.7222 11.7222 62.2189 11.7222 11.7222 
11.7222 11.7222 11.7222 11.7221 11.7221 7.87909 11.7222 11.7221 0 
7.87908 7.8791 14.1084 7.87909 7.87909 7.87909 7.8791 7.8791 7.8791 
0 0 0 62.2189 35.2133 0 35.2133 0 62.2189 
0 17.4747 0 0 0 35.2133 0 55.2918 55.2918 
55.2918 55.2918 55.2918 55.2918 112.663 112.663 200.671 
POINT_DATA 96
FIELD FieldData 2
point_radius 1 96 float
14.347 13.6072 11.7357 10.8 10.8 14.347 14.347 12.8248 10.8 
10.8 14.347 7.26667 14.347 9.44941 14.347 14.347 14.347 14.347 
14.347 12.8248 14.347 14.347 12.8248 14.347 7.5 14.347 10.8 
10.8 8.1498 12.8248 14.347 14.347 12.8248 14.347 14.347 10.8 
14.347 10.8 14.347 12.8248 14.347 14.347 12.8248 14.347 9.44941 
14.347 7.5 8.15 14.347 9.44941 8.1498 14.347 14.347 7.5 
14.347 14.347 14.347 12.2071 14.347 14.347 14.347 12.8248 14.347 
14.347 9.44942 12.8248 11.0304 9.25543 12.8248 12.8248 12.8248 12.8248 
12.8248 12.8248 9.44942 9.44942 9.44941 6.5 7.5 9.44941 7.5 
9.44941 7.5 7.5 6.5 8.1498 7.5 7.5 6.5 7.5 
5.5 5.5 5.5 5.5 5.5 5.5 
pressure_at_node 1 96 float
46.1083 25.2588 25.4587 25.9278 25.5445 45.949 45.7897 40.2924 25.6302 
25.7159 42.7626 26.3969 43.8778 30.6989 45.6304 43.2405 45.4711 40.8507 
44.3558 40.0528 45.3117 45.1524 38.735 41.3286 35.3013 41.8066 25.8016 
25.8873 38.0479 39.933 41.1693 43.5592 39.6934 42.6032 41.01 25.973 
41.9659 26.0587 44.9931 40.1726 44.8338 44.0371 40.4122 43.7185 31.4871 
42.2846 36.747 26.1444 41.6473 31.8812 39.9823 42.1253 42.4439 35.1293 
42.9219 43.0812 40.6913 40.532 43.3998 44.6744 44.5151 39.5736 41.488 
44.1965 32.2753 39.8132 38.6152 38.3609 39.4538 39.2142 39.334 38.9746 
39.0944 38.8548 32.6694 33.0635 30.3048 33.5116 37.1324 29.9107 36.2168 
31.093 38.3646 39.8892 37.9065 0 0 0 34.3857 0 
28.1048 30.0651 32.0255 33.9858 35.9462 30.3913 
