# vtk DataFile Version 4.2
vtk output
ASCII
DATASET POLYDATA
POINTS 6532 float
0 600.444 424.578 2080 1801.33 1273.73 1820 1651.22 849.156 
1820 1951.44 424.578 1560 1200.89 849.156 520 600.444 424.578 
780 450.333 0 780 750.555 849.156 1560 900.666 1273.73 
1040 900.666 1273.73 1300 450.333 1273.73 1560 2401.78 424.578 
1950 225.167 636.867 1820 2551.89 849.156 1300 450.333 0 
520 300.222 2122.89 1560 900.666 0 780 450.333 1273.73 
260 750.555 2122.89 520 600.444 1698.31 1300 1351 0 
780 1351 0 0 1501.11 1698.31 1820 2251.67 1273.73 
1560 1801.33 1273.73 1300 750.555 849.156 780 1050.78 1698.31 
520 1501.11 1698.31 -195 2214.14 212.289 0 600.444 1698.31 
0 900.666 1273.73 1040 600.444 1698.31 1300 1351 1273.73 
780 2401.78 1061.45 0 1200.89 849.156 520 1801.33 1273.73 
260 1050.78 1698.31 1040 1801.33 1273.73 520 1501.11 424.578 
1560 300.222 849.156 520 1200.89 849.156 195 112.583 1592.17 
1040 1501.11 1698.31 1560 600.444 424.578 1560 600.444 1698.31 
1040 1501.11 424.578 1820 450.333 1273.73 1300 1951.44 1698.31 
780 150.111 424.578 325 262.694 743.012 -260 1801.33 636.867 
780 1951.44 1698.31 260 1651.22 2122.89 260 1951.44 1698.31 
260 1050.78 424.578 1300 150.111 424.578 260 2251.67 636.867 
780 1050.78 424.578 1040 300.222 2122.89 260 750.555 849.156 
520 300.222 849.156 1820 150.111 1698.31 130 2476.83 636.867 
0 1200.89 2122.89 1300 1651.22 849.156 2210 525.389 212.289 
1040 2401.78 1698.31 260 1351 1273.73 1300 1050.78 1698.31 
1950 1576.17 1910.6 2210 675.5 636.867 780 1651.22 2122.89 
1950 75.0555 1486.02 910 1876.39 2122.89 1690 375.278 1698.31 
-260 2101.55 2122.89 1560 2101.55 849.156 2080 2101.55 849.156 
130 1876.39 849.156 2080 300.222 212.289 260 1651.22 849.156 
2340 2026.5 1592.17 780 1651.22 849.156 2080 600.444 1698.31 
130 2476.83 1273.73 -130 2626.94 424.578 780 1951.44 424.578 
2210 1125.83 636.867 2080 1951.44 1698.31 2340 1801.33 1273.73 
-130 525.389 212.289 -260 450.333 0 1950 1726.28 1061.45 
1820 1801.33 636.867 1690 1426.06 849.156 260 600.444 424.578 
650 525.389 212.289 650 675.5 636.867 1560 1050.78 1061.45 
1300 900.666 1273.73 1300 600.444 1061.45 1690 2176.61 424.578 
-130 2176.61 1061.45 1690 2476.83 636.867 1040 450.333 0 
780 300.222 2122.89 1430 675.5 0 780 600.444 1061.45 
390 525.389 2122.89 650 525.389 1486.02 1430 1125.83 0 
1040 1351 0 130 1275.94 1698.31 1820 2401.78 1061.45 
1690 2026.5 1273.73 1430 675.5 636.867 910 975.722 1486.02 
650 1275.94 1698.31 780 2251.67 0 260 600.444 1698.31 
0 750.555 1486.02 1170 525.389 1486.02 1300 1501.11 1061.45 
520 2251.67 0 0 1050.78 1061.45 520 1651.22 1486.02 
260 900.666 1910.6 780 1801.33 1273.73 650 1426.06 212.289 
1690 375.278 1061.45 520 1351 636.867 1560 1651.22 1486.02 
2405 1013.25 1910.6 1430 375.278 424.578 1430 825.611 1698.31 
910 1275.94 424.578 1690 525.389 1486.02 1170 1876.39 1486.02 
650 225.167 636.867 1300 1801.33 1910.6 390 2626.94 1061.45 
520 1951.44 1698.31 130 1426.06 2122.89 130 1726.28 1698.31 
130 1125.83 636.867 1040 150.111 424.578 1430 2026.5 1910.6 
520 1050.78 424.578 1040 450.333 1910.6 390 975.722 849.156 
390 525.389 849.156 1430 1275.94 1698.31 390 1876.39 2122.89 
130 975.722 2122.89 1170 1576.17 636.867 1300 2401.78 1698.31 
910 2176.61 1698.31 260 1200.89 1486.02 1300 1200.89 1486.02 
1950 375.278 424.578 -260 1951.44 424.578 520 1651.22 2122.89 
2340 1351 0 1950 75.0555 849.156 2210 1125.83 1273.73 
0 2551.89 1486.02 1430 1876.39 849.156 1820 2101.55 849.156 
520 2551.89 849.156 780 2551.89 849.156 260 1501.11 1061.45 
0 1651.22 849.156 520 1651.22 849.156 1820 600.444 1698.31 
2210 375.278 1698.31 -260 2551.89 212.289 910 1726.28 424.578 
780 2101.55 212.289 2080 1200.89 212.289 1430 2176.61 1698.31 
0 1351 0 1560 2251.67 1910.6 2470 2326.72 1486.02 
1170 1876.39 2122.89 2340 2251.67 1910.6 1560 1801.33 1910.6 
2210 825.611 1061.45 2080 900.666 636.867 520 1801.33 0 
650 2476.83 0 910 2476.83 0 -130 2326.72 212.289 
1560 1651.22 2122.89 1690 225.167 636.867 1430 1576.17 1910.6 
-260 1501.11 424.578 2340 750.555 849.156 1430 1876.39 2122.89 
260 2101.55 212.289 2210 2476.83 1910.6 1040 2251.67 0 
130 1876.39 212.289 130 2626.94 1061.45 130 2326.72 212.289 
520 2401.78 1061.45 2080 1351 0 2080 450.333 636.867 
1300 2251.67 1273.73 1300 2251.67 1910.6 -390 2026.5 636.867 
1170 1876.39 212.289 1430 1876.39 1486.02 2340 2101.55 2122.89 
-130 1426.06 849.156 -260 1351 636.867 1690 1275.94 1698.31 
0 2401.78 1061.45 1950 1876.39 2122.89 910 1726.28 1698.31 
2340 2401.78 424.578 1560 1951.44 1698.31 -130 1876.39 212.289 
2210 225.167 0 910 1726.28 1061.45 -390 2176.61 1061.45 
2210 975.722 212.289 2470 975.722 849.156 2340 750.555 212.289 
2080 825.611 2016.75 2340 450.333 0 260 1801.33 0 
390 2026.5 1273.73 -130 2476.83 636.867 -130 1876.39 2122.89 
2340 1050.78 424.578 0 225.167 636.867 1040 2551.89 849.156 
650 2626.94 424.578 0 2551.89 212.289 2080 150.111 1698.31 
-390 1726.28 424.578 1170 825.611 1698.31 1820 1501.11 1698.31 
1820 2251.67 1910.6 0 2101.55 212.289 1040 300.222 849.156 
1040 2401.78 1061.45 650 2326.72 849.156 2340 1050.78 1061.45 
910 2026.5 636.867 390 2476.83 1910.6 2340 1801.33 0 
2210 2026.5 1910.6 2210 1125.83 0 2340 600.444 1061.45 
260 1951.44 424.578 2210 975.722 849.156 2340 150.111 424.578 
0 2401.78 424.578 2210 1125.83 1910.6 1950 2026.5 1910.6 
1040 1200.89 1486.02 780 2401.78 424.578 260 2101.55 2122.89 
1170 1576.17 1910.6 390 2326.72 2122.89 2210 1576.17 0 
-130 2626.94 1061.45 260 2401.78 424.578 1300 450.333 1910.6 
1950 525.389 849.156 520 2551.89 212.289 650 1726.28 424.578 
520 1651.22 212.289 -260 2101.55 849.156 910 2326.72 212.289 
2210 525.389 849.156 2470 525.389 212.289 -260 2251.67 1273.73 
1170 1275.94 1698.31 650 2326.72 212.289 1820 1351 0 
390 1050.78 1061.45 130 2026.5 636.867 2340 300.222 212.289 
1170 2026.5 0 2340 2401.78 1698.31 1300 2401.78 1061.45 
0 2551.89 849.156 1430 375.278 1698.31 2210 2026.5 636.867 
2080 1801.33 636.867 2340 2251.67 636.867 1170 675.5 1910.6 
1170 2176.61 1698.31 2340 2101.55 212.289 -130 2176.61 424.578 
2210 2176.61 424.578 2210 2476.83 636.867 0 2251.67 1910.6 
130 2026.5 0 2470 975.722 1486.02 130 2626.94 424.578 
390 2326.72 212.289 390 2176.61 1061.45 2080 450.333 0 
1820 750.555 849.156 2080 750.555 849.156 650 2026.5 0 
2340 1651.22 212.289 390 2626.94 1698.31 650 2026.5 636.867 
2080 600.444 424.578 1170 2476.83 636.867 1950 1576.17 636.867 
2080 1351 636.867 -130 1576.17 0 130 2476.83 1910.6 
-260 2551.89 1486.02 -130 2476.83 1910.6 -130 2476.83 1273.73 
-390 2176.61 1698.31 260 2401.78 1698.31 1040 1351 1273.73 
0 2101.55 849.156 -260 2401.78 1061.45 2210 2326.72 2122.89 
2210 1876.39 212.289 1170 2626.94 424.578 2210 2176.61 1698.31 
910 1576.17 1273.73 1690 1576.17 1910.6 -65 788.083 1273.73 
-130 2326.72 849.156 2080 600.444 1061.45 2080 1050.78 1698.31 
-260 2251.67 1910.6 390 2176.61 424.578 130 2176.61 424.578 
1040 1050.78 1698.31 1950 1426.06 2122.89 2210 2026.5 0 
130 2626.94 1698.31 0 1801.33 0 910 2026.5 0 
2080 750.555 212.289 1950 675.5 636.867 2210 1576.17 1910.6 
1950 2326.72 2122.89 1040 1951.44 1698.31 910 2326.72 849.156 
-260 2401.78 1698.31 1820 2101.55 2122.89 2210 225.167 636.867 
1300 2251.67 0 2210 675.5 0 1820 150.111 424.578 
-260 2101.55 1486.02 2080 150.111 424.578 1950 225.167 0 
-130 2176.61 1698.31 2080 1050.78 424.578 1300 1651.22 1486.02 
2080 150.111 1061.45 2080 1200.89 2122.89 650 2176.61 424.578 
910 1876.39 849.156 2340 1200.89 1486.02 1040 2101.55 849.156 
1560 1351 1273.73 780 2251.67 636.867 1040 1651.22 2122.89 
1560 1200.89 1486.02 2080 750.555 2122.89 2210 1426.06 212.289 
2080 2101.55 212.289 2080 1801.33 1910.6 1235 1913.92 955.301 
1040 2401.78 424.578 650 2476.83 636.867 520 2401.78 424.578 
2015 938.194 2016.75 390 2476.83 636.867 1690 1351 1910.6 
1885 412.805 1804.46 1950 225.167 1273.73 1820 450.333 0 
0 2251.67 0 1170 1726.28 1698.31 910 2176.61 424.578 
910 2476.83 636.867 260 2251.67 0 2210 975.722 2122.89 
0 2176.61 1061.45 2080 2401.78 1698.31 1430 1426.06 2122.89 
1040 1801.33 1910.6 130 2026.5 1273.73 2015 788.083 1910.6 
260 2251.67 1273.73 -260 1951.44 1698.31 -260 1651.22 2122.89 
910 1426.06 849.156 260 2401.78 1061.45 -130 2326.72 2122.89 
2080 1050.78 1061.45 2275 262.694 424.578 2080 900.666 1273.73 
1625 1463.58 1910.6 2340 1200.89 849.156 2340 1351 636.867 
2210 1275.94 1061.45 1950 2476.83 1910.6 2340 300.222 530.723 
715 112.583 1273.73 2080 1651.22 212.289 -260 225.167 636.867 
2080 1501.11 424.578 1950 1426.06 212.289 1300 0 1910.6 
1365 37.5278 2016.75 2340 750.555 1486.02 2470 525.389 1486.02 
2080 750.555 1486.02 1690 1576.17 1273.73 1690 1726.28 1061.45 
1820 1651.22 1486.02 910 1426.06 2122.89 1040 1200.89 2122.89 
-195 637.972 1167.59 2080 2401.78 424.578 1950 2176.61 424.578 
1950 2626.94 424.578 1950 825.611 1061.45 1820 1050.78 1061.45 
1170 2176.61 1379.88 -260 2251.67 0 1430 300.222 2122.89 
1040 2626.94 1379.88 -130 1726.28 1698.31 -260 1651.22 1486.02 
1365 863.139 1167.59 2470 1801.33 1273.73 -195 487.861 106.145 
1885 1688.75 955.301 1820 1876.39 530.723 1625 1313.47 849.156 
390 600.444 424.578 715 487.861 106.145 715 713.028 743.012 
1560 975.722 1167.59 1170 900.666 1273.73 1300 525.389 1167.59 
1625 2289.19 424.578 1950 300.222 530.723 1755 2514.36 743.012 
1170 450.333 0 650 300.222 2122.89 1495 788.083 0 
780 525.389 1167.59 325 637.972 2122.89 585 562.917 1592.17 
1365 1238.42 0 910 1351 0 65 1388.53 1698.31 
1820 2326.72 1167.59 1625 1913.92 1273.73 1365 713.028 743.012 
845 1013.25 1592.17 585 1388.53 1698.31 2470 2326.72 1804.46 
130 600.444 1698.31 0 825.611 1379.88 1105 562.917 1592.17 
1300 1426.06 1167.59 650 2401.78 1061.45 0 1125.83 955.301 
520 1726.28 1379.88 260 975.722 1804.46 910 1801.33 1273.73 
585 1463.58 318.434 1625 337.75 955.301 520 1275.94 743.012 
1560 1576.17 1592.17 1105 1388.53 1698.31 1495 487.861 424.578 
1495 713.028 1698.31 975 1388.53 424.578 1755 487.861 1379.88 
1235 1913.92 1592.17 715 187.639 530.723 1300 1726.28 2016.75 
[...]
CELL_DATA 6534
FIELD FieldData 10
radius 1 6534 float
13.6072 71.5714 13.6072 10.8 10.8 71.5714 52.3984 60.6192 10.8 
10.8 52.3981 10.8 23.8111 10.8 52.3984 52.398 52.3984 60.6191 
52.398 60.6191 52.3983 52.3983 26.2756 10.8 10.8 52.3982 10.8 
10.8 7.5 60.6191 60.619 52.3981 42.5808 20.692 60.619 10.8 
49.2408 10.8 52.3983 34.9277 52.3983 7.5 24.2972 52.3982 42.5808 
60.6189 34.9277 10.8 52.3982 9.44941 31.3451 26.2756 29.0317 26.2756 
60.619 52.3982 34.2219 60.619 52.3981 52.3982 52.3982 32.5838 33.1052 
29.0317 53.1055 35.2701 26.2756 46.6087 42.5808 24.7645 34.9276 17.1708 
32.5838 17.1707 32.5838 16.1583 41.7099 41.7099 13.6284 27.0662 46.6087 
9.44941 25.4341 32.5838 26.8729 33.1052 32.045 36.9933 13.6072 71.5714 
13.6072 10.8 10.8 71.5714 52.3985 60.6192 10.8 10.8 52.3981 
10.8 26.2755 10.8 52.3984 52.3981 52.3984 60.6192 52.398 60.6191 
52.3984 52.3983 26.2756 10.8 10.8 52.3982 10.8 10.8 25.6497 
60.6191 60.6191 52.3981 42.5808 19.6556 60.619 10.8 49.2408 10.8 
52.3983 34.9277 52.3983 10.8 13.6284 52.3982 42.5808 60.6189 34.9277 
10.8 52.3982 10.8 26.8729 26.2756 29.0317 26.2756 60.619 52.3982 
24.2972 60.619 52.3981 52.3982 52.3982 27.2569 26.8729 29.0317 53.1055 
26.2756 26.2756 46.6087 42.5808 24.9917 37.7977 17.1708 24.2971 21.9302 
24.2971 26.8729 41.7099 41.7099 11.9055 15.6006 46.6087 43.9334 25.4341 
32.5838 32.5838 33.1052 41.7906 32.045 24.2971 18.0761 26.2755 16.1583 
26.2755 13.6284 17.1707 20.692 12.8249 18.8988 24.2971 34.222 25.6497 
25.6497 33.1052 17.1707 34.9277 12.8249 43.9334 30.4617 17.1707 31.2013 
15.6006 17.635 34.222 26.8729 33.1052 26.8729 19.6556 34.9277 7.5 
24.2972 31.3451 9.44941 23.0424 21.0153 43.9334 43.9334 24.7645 18.0761 
18.0761 24.2972 23.5604 23.0424 28.1722 26.6768 23.5604 23.3043 35.2701 
30.4617 35.2701 11.9055 25.6497 34.222 7.5 33.1051 13.6284 35.2701 
15 9.44942 18.0761 33.1052 32.5838 43.9334 32.5837 24.7645 26.2755 
30.7618 7.5 20.692 21.9302 26.8729 11.9055 26.8729 17.1707 26.2755 
24.2971 12.8248 34.2219 18.8988 7.5 37.7977 18.4966 26.2755 9.44942 
21.6338 26.8729 10.8169 26.8729 18.4966 32.7156 33.98 32.5837 15.6006 
18.0761 34.222 34.222 31.3451 25.6497 7.5 11.9055 26.2755 32.5837 
25.2149 13.6284 7.5 12.8248 12.8248 15.6006 13.6284 15.6006 33.1051 
32.5837 41.7099 36.9933 27.9939 32.5837 24.2972 18.4966 37.7977 18.4966 
14.347 19.6556 15 19.2846 33.1052 33.3598 7.5 28.8638 16.1583 
25.6497 17.635 18.4966 26.8729 14.347 25.6497 9.44942 36.9933 36.9933 
27.4448 17.1707 31.9075 20.013 32.4507 26.2755 15 17.635 18.0761 
23.3043 21.0153 18.4966 9.44941 18.0761 21.329 15 10.8169 18.8988 
16.6799 17.635 26.2755 34.2219 23.811 32.5837 24.0565 17.1707 26.8729 
28.1722 17.635 25.6497 25.6497 10.8169 21.0153 24.2972 21.9302 31.4876 
21.0153 34.9277 11.9055 25.6497 34.9277 26.2755 34.9277 26.6768 30.7618 
24.2971 23.0424 21.0153 24.0565 12.8248 11.9055 21.9302 16.6799 17.1707 
18.0761 22.5 17.1707 14.347 14.347 15 18.0761 11.9055 7.5 
18.0761 15 9.44942 15 9.44941 7.5 15.6006 10.8169 15 
23.0424 11.9055 18.0761 19.2846 19.2846 10.8169 15.6006 11.9055 22.5 
16.6799 12.8248 17.635 30.4617 13.6284 10.8169 18.0761 18.0761 17.1707 
7.5 9.44941 9.44941 20.6919 13.6284 9.44941 10.8169 7.5 12.8248 
15 9.44942 12.8248 15 7.5 10.8169 19.2846 14.347 14.347 
17.1707 9.44941 9.44942 19.2846 10.8169 12.8248 18.8988 11.9055 17.1707 
17.635 11.9055 7.5 15 10.8169 7.5 27.8133 21.9302 71.5714 
13.6072 10.8 10.8 71.5714 52.3984 60.6192 10.8 10.8 52.3981 
10.8 24.9917 10.8 52.3984 52.398 52.3984 60.6191 52.398 60.6191 
52.3984 52.3983 26.2756 10.8 10.8 52.3982 10.8 10.8 7.5 
60.6191 60.6191 52.3981 42.5808 20.692 60.619 10.8 49.2408 10.8 
52.3983 34.9277 52.3983 10.8 24.2972 52.3982 42.5808 60.6189 34.9277 
10.8 52.3982 10.8 31.3451 26.2756 29.0317 26.2756 60.619 52.3982 
34.2219 60.619 52.3981 52.3982 52.3982 32.5838 33.1052 29.0317 53.1055 
35.2701 26.2756 46.6087 42.5808 24.7645 34.9276 17.1708 32.5838 17.1707 
32.5838 16.1583 41.7099 41.7099 17.1707 27.0662 46.6087 7.5 25.4341 
32.5838 26.8729 33.1052 32.045 36.9933 13.6072 71.5714 13.6072 10.8 
10.8 71.5714 52.3985 60.6192 10.8 10.8 52.3982 10.8 26.2755 
10.8 52.3984 52.3981 52.3984 60.6192 52.398 60.6191 52.3984 52.3983 
26.2756 10.8 10.8 52.3982 10.8 10.8 25.6497 60.6191 60.6191 
52.3981 42.5808 22.5 60.619 10.8 49.2408 10.8 52.3983 34.9277 
52.3983 10.8 9.44942 52.3982 42.5808 60.6189 34.9277 10.8 52.3982 
10.8 26.8729 26.2756 29.0317 26.2756 60.619 52.3982 24.2972 60.619 
52.3981 52.3983 52.3982 27.2569 26.8729 29.0317 53.1055 26.2756 26.2756 
46.6087 42.5808 24.9917 37.7977 17.1708 24.2971 23.811 24.2971 26.8729 
41.7099 41.7099 14.347 18.0761 46.6087 43.9334 25.4341 32.5838 32.5838 
33.1052 41.7906 32.045 24.2971 18.0761 26.2755 25.4341 26.2755 13.6284 
17.1707 20.692 12.8249 18.8988 24.2971 34.222 25.6497 25.6497 33.1052 
17.1707 34.9277 12.8249 43.9334 30.4617 17.1707 33.3598 18.4966 17.635 
34.222 26.8729 33.1052 26.8729 19.6556 34.9277 11.9055 24.2972 31.3451 
13.6284 23.0424 21.0153 43.9334 43.9334 24.7645 18.0761 19.2846 24.2972 
23.5604 23.0424 29.1975 26.6768 23.5604 23.3043 35.2701 30.4617 35.2701 
7.5 25.6497 34.222 9.44941 33.1051 13.6284 35.2701 9.44941 12.8248 
18.0761 33.1052 32.5838 43.9334 32.5837 24.7645 26.2755 31.2013 10.8169 
20.692 21.9302 26.8729 11.9055 26.8729 18.4966 26.2755 24.2971 12.8248 
34.222 18.8989 7.5 37.7977 18.4966 26.2755 17.635 21.6338 26.8729 
10.8169 26.8729 18.8988 33.1051 34.3415 32.5837 16.6799 18.0761 34.222 
34.222 31.3451 25.6497 13.6284 11.9055 26.2755 32.5837 25.2149 16.1583 
7.5 21.9302 12.8248 15.6006 13.6284 18.8988 33.1051 32.5837 41.7099 
36.9933 27.9939 32.5837 24.2972 18.4966 37.7977 18.4966 20.6919 21.6338 
19.2846 19.2846 33.1052 33.3598 7.5 28.8638 21.9302 25.6497 17.635 
18.4966 26.8729 16.1583 25.6497 9.44942 36.9933 36.9933 27.4448 18.8988 
32.1814 20.013 32.7156 26.2755 15.6006 21.329 18.8988 23.3043 21.0153 
18.4966 9.44941 18.0761 23.5604 15 13.6284 18.8988 16.6799 18.4966 
26.2755 34.2219 23.811 32.5837 24.0565 17.1707 26.8729 28.1722 17.635 
25.6497 25.6497 10.8169 21.0153 24.2972 21.9302 31.9075 21.0153 34.9277 
11.9055 25.6497 34.9277 26.2755 34.9277 26.6768 31.4876 24.2971 23.0424 
21.0153 24.0565 12.8248 15 21.9302 18.0761 17.1707 18.0761 22.5 
17.1707 16.6799 14.347 16.1583 18.0761 13.6284 12.8248 18.0761 15 
14.347 15.6006 7.5 7.5 18.4966 17.1707 15 23.0424 11.9055 
20.013 19.2846 19.6556 12.8248 15.6006 11.9055 23.0424 16.6799 14.347 
17.635 30.7618 13.6284 15 18.0761 19.6556 17.1707 13.6284 13.6284 
7.5 20.6919 20.013 9.44942 10.8169 10.8169 9.44942 15 13.6284 
15 15 7.5 14.347 19.2846 16.1583 14.347 17.1707 12.8248 
14.347 22.5 19.2846 7.5 18.8988 11.9055 17.1707 18.4966 12.8248 
15 15 15 15.6006 30.0001 27.8133 13.6284 7.50001 20.3582 
17.1707 15 9.44941 7.5 9.44942 7.5 12.8248 9.44941 7.50001 
7.50001 9.44941 7.5 10.8169 9.44941 15 11.9055 11.9055 7.5 
9.44941 7.50001 7.5 10.8169 9.44941 9.44941 10.8169 15 13.6284 
7.5 13.6284 7.5 9.44941 10.8169 11.9055 7.5 11.9055 7.5 
10.8169 10.8169 7.5 16.6799 12.8248 9.44941 9.44941 10.8169 10.8169 
7.5 7.5 10.8169 9.44942 15 10.8169 9.44941 10.8169 13.6284 
10.8169 10.8169 9.44941 7.5 9.44941 10.8169 7.5 9.44941 7.5 
7.5 7.5 7.5 7.5 9.44941 11.9055 11.9055 7.5 12.8248 
11.9055 10.8169 11.9055 7.5 7.5 9.44941 10.8169 7.5 7.5 
9.44941 14.347 7.5 12.8248 7.5 10.8169 15 11.9055 10.8169 
11.9055 11.9055 11.9055 7.5 7.5 7.5 10.8169 10.8169 10.8169 
7.5 10.8169 10.8169 10.8169 9.44941 7.5 11.9055 10.8169 11.9055 
7.5 7.5 10.8169 9.44943 13.6284 13.6284 11.9055 7.5 7.5 
11.9055 9.44941 7.5 7.5 15.6006 7.5 10.8169 7.5 7.5 
7.5 7.5 7.5 10.8169 12.8248 12.8248 9.44941 17.1707 10.8169 
11.9055 10.8169 10.8169 11.9055 12.8248 10.8169 9.44941 11.9055 10.8169 
10.8169 9.44942 11.9055 11.9055 11.9055 7.5 12.8248 12.8248 10.8169 
9.44941 10.8169 7.5 10.8169 16.1583 13.6284 11.9055 9.44943 10.8169 
12.8248 11.9055 9.44941 9.44942 7.5 7.5 7.5 10.8169 7.5 
10.8169 9.44941 9.44941 7.5 7.5 7.5 12.8248 7.5 14.347 
7.5 9.44941 7.5 14.347 11.9055 10.8169 11.9055 11.9055 7.5 
7.5 11.9055 7.5 18.0761 10.8169 18.0761 7.50001 7.50001 7.5 
9.44941 7.5 7.5 13.6284 11.9055 9.44942 9.44942 10.8169 9.44941 
7.5 16.1583 16.1583 10.8169 11.9055 10.8169 9.44941 9.44941 13.6284 
12.8248 7.5 12.8248 9.44942 7.5 10.8169 7.5 10.8169 11.9055 
7.5 7.5 12.8248 9.44941 7.5 7.5 7.5 14.347 11.9055 
10.8169 12.8248 9.44941 9.44942 7.5 9.44942 7.5 9.44942 7.5 
9.44941 9.44941 10.8169 13.6284 7.5 12.8248 10.8169 10.8169 11.9055 
9.44941 7.5 10.8169 12.8248 11.9055 10.8169 11.9055 9.44942 10.8169 
10.8169 10.8169 11.9055 9.44941 11.9055 11.9055 12.8248 13.6284 13.6284 
9.44941 14.347 10.8169 11.9055 7.5 9.44941 7.5 7.5 7.5 
10.8169 10.8169 10.8169 10.8169 7.5 10.8169 14.347 7.5 9.44941 
9.44941 7.5 13.6284 13.6284 7.5 7.5 7.5 7.5 11.9055 
9.44941 7.5 7.5 7.5 17.1707 7.5 7.5 10.8169 10.8169 
9.44941 7.5 7.5 7.5 7.5 7.5 18.8988 9.44943 18.0761 
10.8169 9.44941 7.5 7.5 14.347 10.8169 11.9055 13.6284 9.44941 
11.9055 7.5 9.44941 10.8169 9.44942 9.44941 17.635 15.6006 15.6006 
7.5 22.2188 22.2188 7.5 9.44942 11.9055 11.9055 10.8169 10.8169 
10.8169 9.44941 15.6006 7.5 15.6006 11.9055 9.44941 11.9055 7.50001 
7.5 7.50001 13.6284 7.5 9.44941 16.6799 11.9055 16.6799 9.44944 
9.44941 9.44944 18.0761 11.9055 7.5 11.9055 11.9055 9.44941 7.5 
7.5 12.8248 7.5 12.8248 9.44941 9.44941 9.44941 10.8169 7.5 
10.8169 9.44942 7.50001 14.347 9.44941 7.5 7.5 7.5 7.5 
7.5 7.5 7.5 14.347 7.5 9.44941 9.44941 9.44941 7.5 
7.5 9.44941 9.44941 7.5 9.44941 7.5 9.44942 7.5 7.5 
7.5 9.44941 7.5 12.8248 11.9055 11.9055 9.44942 10.8169 10.8169 
7.5 10.8169 9.44941 15 7.5 9.44941 14.347 10.8169 7.5 
7.5 7.5 7.5 7.5 10.8169 7.5 10.8169 12.8248 7.5 
12.8248 12.8248 12.8248 9.44941 14.347 14.347 9.44941 11.9055 11.9055 
15.6006 9.44941 10.8169 10.8169 9.44941 7.5 9.44941 11.9055 10.8169 
7.5 7.5 7.5 10.8169 7.5 10.8169 11.9055 7.5 17.635 
14.347 13.6284 16.6799 16.6799 7.5 10.8169 10.8169 9.44941 15.6007 
7.5 15.6007 13.6284 9.44941 11.9055 12.8248 16.1583 16.1583 7.5 
15 15 7.5 10.8169 10.8169 13.6284 9.44942 10.8169 16.6799 
15 10.8169 12.8248 7.5 14.347 9.44942 12.8248 13.6284 9.44941 
7.5 7.5 7.5 7.5 9.44941 7.5 16.1583 7.5 7.5 
15 15 10.8169 9.44941 7.5 11.9055 15 15 9.44941 
10.8169 9.44941 11.9055 9.44941 7.5 7.5 9.44941 10.8169 7.5 
21.9302 21.0153 10.8169 9.44941 10.8169 9.44941 9.44942 11.9055 7.5 
14.347 11.9055 14.347 11.9055 10.8169 16.1583 9.44941 16.1583 12.8248 
12.8248 7.5 11.9055 12.8248 12.8248 12.8248 12.8248 13.6284 12.8248 
15.6006 9.44942 14.347 10.8169 16.1583 16.1583 9.44941 13.6284 10.8169 
7.5 9.44941 17.635 15 12.8248 9.44941 11.9055 7.5 12.8248 
10.8169 11.9055 7.5 11.9055 10.8169 7.5 7.5 13.6284 11.9055 
7.5 15.6006 14.347 9.44941 12.8248 12.8248 7.5 12.8248 9.44942 
12.8248 9.44941 9.44942 10.8169 14.347 11.9055 10.8169 7.5 15 
13.6284 9.44941 11.9055 7.5 9.44941 9.44941 7.5 15.6007 15.6006 
7.5 9.44942 9.44941 9.44941 7.5 9.44941 11.9055 12.8248 11.9055 
11.9055 11.9055 9.44941 11.9055 9.44941 9.44942 9.44941 23.0424 22.5 
9.44942 9.44941 10.8169 11.9055 18.4966 15 14.347 10.8169 7.5 
7.5 10.8169 10.8169 12.8248 7.5 9.44941 9.44941 10.8169 7.5 
7.5 16.1583 9.44941 7.5 9.44941 9.44941 7.5 9.44941 14.347 
9.44941 9.44941 7.5 9.44941 7.5 7.5 9.44942 9.44942 9.44942 
10.8169 9.44941 9.44941 7.5 7.5 9.44941 7.5 7.5 7.5 
7.50001 14.347 11.9055 10.8169 10.8169 7.5 7.5 10.8169 15 
12.8248 10.8169 7.5 7.5 7.5 9.44942 7.5 7.5 13.6284 
11.9055 9.44941 9.44941 15.6006 7.5 10.8169 7.5 7.5 10.8169 
7.5 10.8169 11.9055 13.6284 11.9055 10.8169 7.5 7.5 9.44941 
11.9055 7.5 11.9055 10.8169 10.8169 10.8169 7.5 16.1583 16.1583 
11.9055 9.44942 7.5 11.9055 7.5 15 9.44941 11.9055 14.347 
14.347 10.8169 7.5 9.44941 7.5 9.44941 7.5 11.9055 10.8169 
10.8169 7.5 9.44941 10.8169 7.50001 10.8169 10.8169 10.8169 10.8169 
10.8169 7.5 7.5 7.5 7.5 11.9055 7.5 11.9055 7.5 
15.6006 7.5 9.44941 9.44941 12.8248 9.44941 9.44941 9.44941 10.8169 
7.5 10.8169 7.5 15.6006 15.6006 10.8169 9.44941 7.5 10.8169 
9.44941 7.5 9.44941 10.8169 11.9055 9.44941 11.9055 7.5 7.5 
7.5 7.5 11.9055 11.9055 9.44941 10.8169 10.8169 11.9055 10.8169 
10.8169 7.5 9.44941 7.5 7.5 9.44942 10.8169 9.44941 11.9055 
9.44941 7.5 7.5 9.44941 7.5 10.8169 9.44941 10.8169 11.9055 
9.44941 9.44941 7.5 7.5 12.8248 18.0761 10.8169 18.0761 11.9055 
9.44942 9.44942 9.44941 9.44941 7.5 9.44941 14.347 7.5 14.347 
7.5 9.44941 7.5 7.5 10.8169 7.5 7.5 7.5 7.5 
9.44941 7.5 9.44941 7.5 9.44941 11.9055 10.8169 7.5 7.5 
7.50001 7.50001 9.44941 13.6284 13.6284 10.8169 7.5 11.9055 14.347 
7.5 14.347 11.9055 7.5 11.9055 10.8169 12.8248 10.8169 12.8248 
10.8169 12.8248 11.9055 7.5 10.8169 7.5 7.5 7.5 7.5 
7.5 11.9055 7.5 7.5 12.8248 7.5 7.5 9.44941 7.5 
13.6284 7.5 7.5 7.5 9.44941 7.50001 15 7.5 15 
10.8169 10.8169 7.5 15.6006 15.6006 7.5 12.8248 12.8248 7.5 
11.9055 10.8169 7.50001 10.8169 13.6284 9.44941 9.44941 12.8248 9.44941 
7.5 9.44941 9.44941 7.5 10.8169 7.5 7.5 14.347 7.5 
7.5 15.6006 7.5 7.5 7.5 9.44941 7.5 9.44941 7.5 
7.5 9.44941 11.9055 7.5 11.9055 9.44941 9.44941 7.5 15.6007 
15.6007 7.5 10.8169 9.44941 15.6006 7.5 10.8169 7.5 7.5 
7.50001 7.5 7.50001 11.9055 7.5 11.9055 9.44942 9.44941 10.8169 
7.5 7.5 7.5 7.5 10.8169 11.9055 10.8169 7.5 11.9055 
10.8169 10.8169 10.8169 15.6006 10.8169 10.8169 10.8169 10.8169 10.8169 
7.5 11.9055 13.6284 9.44941 13.6284 16.6799 16.6799 9.44941 7.5 
7.5 11.9055 7.5 7.5 7.5 13.6284 9.44942 9.44941 7.5 
11.9055 13.6284 9.44941 11.9055 7.5 9.44942 7.5 9.44942 11.9055 
9.44941 7.5 10.8169 7.5 7.5 10.8169 10.8169 14.347 11.9055 
10.8169 7.5 9.44941 7.5 7.5 7.5 7.5 7.5 9.44941 
7.5 7.5 7.5 9.44942 9.44942 7.5 14.347 10.8169 14.347 
7.5 12.8248 7.5 11.9055 11.9055 9.44942 9.44941 9.44942 7.5 
7.5 7.5 10.8169 10.8169 10.8169 13.6284 10.8169 13.6284 12.8248 
12.8248 7.5 9.44941 15 9.44941 10.8169 9.44941 12.8248 7.5 
7.5 7.5 7.5 7.5 17.1707 7.5 17.1707 15 15 
10.8169 15 11.9055 10.8169 7.5 7.5 7.5 10.8169 7.5 
7.5 9.44941 9.44941 7.5 9.44941 9.44941 9.44941 11.9055 11.9055 
15.6006 13.6284 7.5 13.6284 7.5 7.5 7.5 7.5 10.8169 
11.9055 7.5 12.8248 12.8248 12.8248 10.8169 7.5 11.9055 9.44941 
7.5 7.5 10.8169 9.44941 7.5 7.5 7.5 10.8169 10.8169 
13.6284 7.5 7.5 9.44941 7.5 7.5 7.5 7.5 9.44941 
11.9055 7.5 7.5 13.6284 15.6006 7.5 7.5 7.5 10.8169 
7.5 9.44942 9.44941 7.5 11.9055 7.5 10.8169 11.9055 7.5 
11.9055 11.9055 11.9055 11.9055 11.9055 7.5 10.8169 10.8169 9.44941 
9.44941 10.8169 7.5 10.8169 12.8248 9.44941 7.5 7.5 9.44941 
7.5 7.5 11.9055 7.5 11.9055 12.8248 12.8248 7.5 7.5 
9.44941 9.44941 7.5 9.44942 10.8169 7.5 11.9055 10.8169 9.44941 
10.8169 10.8169 10.8169 9.44941 10.8169 9.44941 7.5 16.1583 7.5 
16.1583 14.347 10.8169 12.8248 9.44941 7.5 7.5 9.44941 9.44941 
13.6284 7.5 7.5 9.44941 7.5 7.5 7.5 9.44942 7.5 
10.8169 9.44941 9.44941 7.5 9.44941 11.9055 9.44941 11.9055 12.8248 
12.8248 17.1707 7.5 10.8169 7.5 7.5 7.5 7.5 7.5 
10.8169 7.5 10.8169 7.5 9.44941 7.5 7.5 16.1583 9.44942 
7.5 9.44941 14.347 10.8169 7.5 9.44941 10.8169 9.44942 10.8169 
7.5 9.44941 9.44941 7.5 10.8169 9.44941 11.9055 9.44941 10.8169 
15 9.44941 15.6006 9.44941 7.5 7.5 22.5 11.9055 21.329 
7.5 7.5 9.44941 12.8248 10.8169 7.5 7.5 17.1707 11.9055 
7.5 13.6284 11.9055 11.9055 7.5 10.8169 12.8248 9.44942 9.44942 
7.5 10.8169 9.44943 7.5 7.5 7.5 7.5 11.9055 9.44941 
9.44941 7.5 7.5 10.8169 7.5 9.44941 13.6284 7.5 11.9055 
7.5 11.9055 13.6284 15 13.6284 9.44941 7.5 11.9055 7.5 
7.5 14.347 9.44941 9.44941 7.5 7.5 9.44941 18.0761 17.1707 
9.44942 11.9055 11.9055 9.44941 7.5 7.5 7.5 7.5 10.8169 
11.9055 7.5 14.347 7.5 7.5 9.44941 7.5 7.5 7.5 
7.5 7.5 12.8248 10.8169 11.9055 7.5 12.8248 9.44941 7.5 
7.5 7.5 9.44941 9.44941 11.9055 11.9055 7.5 7.5 7.5 
9.44941 12.8248 10.8169 9.44942 10.8169 18.0761 14.347 14.347 10.8169 
9.44941 13.6284 7.5 12.8248 9.44941 7.5 9.44941 15 15 
9.44941 10.8169 7.5 9.44941 9.44941 10.8169 10.8169 9.44941 12.8248 
10.8169 9.44941 15 10.8169 12.8248 15 11.9055 7.5 11.9055 
22.2188 16.1583 18.8988 9.44941 11.9055 10.8169 16.1583 15 9.44941 
17.1707 11.9055 7.5 11.9055 15 7.5 7.5 10.8169 9.44941 
7.5 11.9055 7.5 7.5 7.5 7.5 9.44941 9.44941 7.5 
7.5 9.44941 9.44942 9.44942 13.6284 9.44942 13.6284 13.6284 9.44941 
11.9055 11.9055 7.5 7.5 7.5 7.5 9.44941 10.8169 7.5 
10.8169 10.8169 10.8169 9.44941 7.5 10.8169 7.5 9.44941 9.44941 
9.44941 10.8169 9.44942 11.9055 7.5 7.5 7.5 7.5 7.5 
7.5 11.9055 10.8169 7.5 11.9055 7.5 10.8169 10.8169 9.44941 
9.44942 7.5 7.5 7.5 21.0153 18.0761 15 10.8169 7.5 
7.5 7.5 9.44941 9.44941 9.44941 9.44941 7.5 7.5 10.8169 
10.8169 9.44941 13.6284 9.44943 11.9055 7.5 11.9055 9.44941 7.5 
7.5 9.44942 9.44941 7.50001 7.5 7.50001 9.44941 15 11.9055 
7.5 11.9055 9.44941 9.44941 7.5 7.5 9.44941 7.5 9.44941 
7.5 9.44942 7.5 11.9055 7.5 7.5 10.8169 12.8248 12.8248 
7.5 12.8248 12.8248 7.5 7.5 10.8169 10.8169 9.44941 10.8169 
9.44941 11.9055 7.5 9.44941 7.5 9.44941 11.9055 7.5 15.6006 
11.9055 9.44941 7.5 7.5 7.5 16.1583 14.347 10.8169 9.44941 
9.44941 11.9055 7.5 7.5 7.5 10.8169 14.347 10.8169 7.5 
15 7.5 9.44942 10.8169 11.9055 7.5 9.44941 9.44942 11.9055 
7.5 9.44941 10.8169 11.9055 11.9055 9.44941 10.8169 10.8169 10.8169 
9.44941 7.5 13.6284 14.347 9.44941 9.44941 11.9055 7.5 10.8169 
7.5 7.5 9.44941 11.9055 9.44942 9.44941 9.44942 7.5 7.5 
7.5 10.8169 9.44941 12.8248 9.44941 12.8248 7.5 9.44941 9.44941 
10.8169 15.6006 10.8169 15.6006 7.5 12.8248 7.5 12.8248 11.9055 
12.8248 9.44941 9.44941 9.44941 9.44941 9.44941 7.5 7.5 9.44941 
14.347 9.44941 10.8169 7.5 7.50001 7.5 10.8169 10.8169 10.8169 
10.8169 7.5 9.44941 7.5 16.1583 10.8169 9.44942 7.5 7.5 
9.44941 7.5 9.44941 7.5 9.44941 7.5 7.50001 9.44941 7.5 
10.8169 9.44941 7.5 9.44941 11.9055 9.44941 7.5 9.44941 12.8248 
9.44941 9.44941 13.6284 9.44941 7.5 11.9055 7.5 9.44942 7.5 
9.44941 7.5 9.44941 7.5 7.5 7.5 10.8169 7.5 9.44941 
16.6799 10.8169 15 7.5 10.8169 11.9055 9.44941 12.8248 7.5 
7.5 11.9055 15 10.8169 12.8248 7.5 9.44941 9.44941 9.44941 
10.8169 9.44941 10.8169 7.5 9.44941 10.8169 7.5 10.8169 7.5 
9.44942 9.44941 7.5 7.5 10.8169 11.9055 9.44941 11.9055 9.44942 
11.9055 9.44941 9.44941 9.44941 7.5 13.6284 7.5 7.5 10.8169 
18.4966 7.5 12.8248 7.5 9.44941 10.8169 9.44941 7.5 15 
15 7.5 12.8248 12.8248 7.5 12.8248 7.5 9.44941 9.44941 
9.44941 9.44941 7.5 11.9055 13.6284 7.5 7.5 9.44941 11.9055 
10.8169 9.44941 7.5 9.44941 7.5 10.8169 9.44941 7.5 7.5 
15 11.9055 11.9055 10.8169 7.5 10.8169 7.5 7.5 7.5 
10.8169 11.9055 11.9055 11.9055 11.9055 10.8169 7.5 9.44941 9.44942 
9.44942 7.5 9.44941 11.9055 11.9055 14.347 9.44941 7.5 9.44941 
7.5 7.5 7.5 7.5 7.5 9.44941 17.1707 12.8248 14.347 
9.44941 7.5 9.44941 11.9055 9.44942 9.44941 9.44941 7.5 7.5 
13.6284 10.8169 7.5 9.44942 12.8248 9.44941 9.44941 7.5 10.8169 
7.5 10.8169 7.5 9.44941 7.5 7.5 11.9055 7.5 13.6284 
7.5 10.8169 7.5 13.6284 7.5 9.44942 9.44941 9.44941 10.8169 
7.5 9.44942 10.8169 11.9055 11.9055 7.5 7.5 7.5 9.44941 
7.5 12.8248 7.5 7.5 7.5 9.44942 9.44942 7.5 7.5 
9.44941 7.5 7.5 9.44941 12.8248 10.8169 7.5 10.8169 7.5 
10.8169 7.5 9.44941 9.44941 9.44941 10.8169 7.5 7.5 13.6284 
10.8169 10.8169 12.8248 9.44942 7.5 7.5 9.44941 10.8169 7.5 
7.5 7.5 9.44941 11.9055 7.5 15 11.9055 11.9055 9.44941 
9.44941 10.8169 10.8169 7.5 10.8169 9.44943 9.44943 7.5 7.5 
9.44941 12.8248 10.8169 9.44942 7.5 9.44941 9.44941 7.5 7.5 
9.44941 7.5 7.5 9.44941 7.5 9.44941 10.8169 10.8169 14.347 
9.44941 14.347 7.50001 7.5 7.5 7.5 7.5 9.44941 7.50001 
7.50001 11.9055 9.44941 7.5 10.8169 7.50001 10.8169 7.5 7.5 
10.8169 7.5 11.9055 10.8169 11.9055 15 7.5 7.5 7.5 
7.5 9.44941 7.5 10.8169 9.44941 10.8169 7.5 7.5 11.9055 
7.5 10.8169 7.5 10.8169 9.44941 11.9055 15 7.5 15 
13.6284 9.44942 10.8169 9.44942 9.44941 7.5 7.5 7.5 15 
15 7.5 10.8169 7.5 10.8169 9.44941 9.44941 7.5 10.8169 
10.8169 18.0761 11.9055 16.1583 7.5 14.347 13.6284 7.50001 9.44942 
7.5 9.44942 12.8248 7.5 12.8248 7.5 9.44942 7.5 11.9055 
11.9055 11.9055 11.9055 11.9055 7.5 11.9055 9.44941 11.9055 10.8169 
11.9055 9.44941 9.44942 14.347 10.8169 11.9055 9.44942 10.8169 10.8169 
7.5 7.5 7.5 12.8248 9.44941 9.44942 7.5 11.9055 7.5 