# vtk DataFile Version 4.2
vtk output
ASCII
DATASET POLYDATA
POINTS 215 float
-260 450.333 0 2080 1801.33 0 0 900.666 0 
1235 1013.25 0 1040 1801.33 0 1820 1351 0 
910 675.5 0 1300 1351 0 -325 1688.75 0 
1430 675.5 0 260 1351 0 520 900.666 0 
780 450.333 0 975 1463.58 0 780 1125.83 0 
1105 1913.92 0 910 1125.83 0 1170 675.5 0 
975 562.917 0 -130 675.5 0 910 1576.17 0 
1170 1576.17 0 1950 1576.17 0 650 1576.17 0 
1560 1351 0 130 1576.17 0 1430 900.666 0 
130 1125.83 0 260 900.666 0 650 675.5 0 
780 1801.33 0 1040 450.333 0 845 1013.25 0 
650 2026.5 0 650 1125.83 0 1690 675.5 0 
520 1351 0 -260 1801.33 0 1040 900.666 0 
260 1801.33 0 520 1801.33 0 325 1688.75 0 
1170 1125.83 0 910 2026.5 0 1300 900.666 0 
1755 788.083 0 1170 2026.5 0 1755 1688.75 0 
130 2026.5 0 1755 1913.92 0 455 1688.75 0 
1625 1013.25 0 -130 2026.5 0 1820 2026.5 0 
845 1463.58 0 1690 1125.83 0 1105 562.917 0 
-65 788.083 0 1560 1576.17 0 1105 1688.75 0 
1885 1463.58 0 845 1238.42 0 1430 1351 0 
390 1351 0 1300 675.5 0 195 1238.42 0 
390 900.666 0 715 562.917 0 325 1463.58 0 
1625 788.083 0 -260 1351 0 1495 2139.08 0 
-195 562.917 0 975 1688.75 0 1235 1463.58 0 
2015 1688.75 0 780 1576.17 0 1690 1351 0 
195 1463.58 0 1820 1576.17 0 65 1013.25 0 
130 900.666 0 585 788.083 0 650 1801.33 0 
910 450.333 0 780 675.5 0 585 1913.92 0 
585 1013.25 0 1560 675.5 0 1235 1913.92 0 
585 1238.42 0 780 900.666 0 1105 788.083 0 
195 1688.75 0 390 1801.33 0 1690 900.666 0 
1105 1013.25 0 780 2026.5 0 1365 1013.25 0 
910 1801.33 0 1040 2026.5 0 910 900.666 0 
195 1913.92 0 0 2026.5 0 325 2139.08 0 
1755 1013.25 0 1040 675.5 0 455 1463.58 0 
195 2139.08 0 1755 1238.42 0 1495 788.083 0 
1235 1238.42 0 1495 1013.25 0 1170 1351 0 
325 1238.42 0 1885 1913.92 0 910 1351 0 
1495 1688.75 0 650 1351 0 260 1576.17 0 
1235 1688.75 0 1690 2026.5 0 390 1576.17 0 
520 1576.17 0 1040 1351 0 1885 788.083 0 
1105 1463.58 0 780 1351 0 1300 1576.17 0 
1040 1125.83 0 -260 1576.17 0 585 1688.75 0 
975 1913.92 0 1885 1688.75 0 1755 2139.08 0 
975 1238.42 0 1300 1801.33 0 715 1463.58 0 
1690 1576.17 0 1430 1576.17 0 1690 2251.67 0 
715 1238.42 0 65 2139.08 0 1820 1801.33 0 
-130 1801.33 0 1820 2251.67 0 -195 1913.92 0 
1365 1688.75 0 1690 1801.33 0 1560 900.666 0 
1300 2026.5 0 650 900.666 0 1885 1013.25 0 
975 788.083 0 1950 900.666 0 1560 1801.33 0 
1625 1688.75 0 -195 1463.58 0 -65 1913.92 0 
1365 2139.08 0 585 1463.58 0 1105 1238.42 0 
1560 2026.5 0 715 1013.25 0 1170 1801.33 0 
1625 2139.08 0 195 788.083 0 1235 788.083 0 
1365 1913.92 0 1300 1125.83 0 1885 2139.08 0 
1365 788.083 0 845 788.083 0 845 562.917 0 
1430 1125.83 0 -65 2139.08 0 -195 1238.42 0 
1820 1125.83 0 -130 1125.83 0 1755 562.917 0 
65 1463.58 0 585 2139.08 0 1170 900.666 0 
845 2139.08 0 -130 1351 0 1625 562.917 0 
845 1688.75 0 65 1688.75 0 390 1125.83 0 
325 1013.25 0 520 1125.83 0 1950 1125.83 0 
2080 1125.83 0 1885 1238.42 0 325 788.083 0 
260 675.5 0 455 788.083 0 65 1238.42 0 
-65 1238.42 0 130 1351 0 1625 1238.42 0 
1755 1463.58 0 585 562.917 0 390 2026.5 0 
325 1913.92 0 520 2026.5 0 845 1913.92 0 
715 788.083 0 975 1013.25 0 2015 788.083 0 
2080 675.5 0 2080 900.666 0 -130 1576.17 0 
-65 1463.58 0 -65 1688.75 0 
LINES 242 726
2 13 54 
2 56 17 
2 57 2 
2 169 3 
2 59 4 
2 60 5 
2 106 6 
2 62 7 
2 37 8 
2 64 9 
2 65 10 
2 66 11 
2 67 12 
2 124 13 
2 16 14 
2 132 15 
2 135 16 
2 72 19 
2 73 20 
2 74 21 
2 75 22 
2 76 23 
2 77 24 
2 78 25 
2 110 26 
2 80 27 
2 81 28 
2 82 29 
2 83 30 
2 84 31 
2 16 32 
2 86 33 
2 87 34 
2 88 35 
2 84 18 
2 90 36 
2 144 37 
2 92 38 
2 93 39 
2 94 40 
2 122 41 
2 96 42 
2 97 43 
2 3 44 
2 35 45 
2 100 46 
2 133 47 
2 102 48 
2 121 49 
2 94 50 
2 55 51 
2 158 52 
2 115 53 
2 31 56 
2 19 57 
2 117 58 
2 21 59 
2 22 60 
2 141 61 
2 24 62 
2 114 63 
2 17 64 
2 27 65 
2 28 66 
2 29 67 
2 10 68 
2 149 69 
2 157 70 
2 159 71 
2 0 72 
2 4 73 
2 7 74 
2 1 75 
2 20 76 
2 5 77 
2 10 78 
2 138 79 
2 2 80 
2 2 81 
2 11 82 
2 40 83 
2 12 84 
2 172 85 
2 40 86 
2 11 87 
2 9 88 
2 46 89 
2 34 90 
2 32 91 
2 17 92 
2 25 93 
2 39 94 
2 45 95 
2 38 96 
2 33 97 
2 3 98 
2 4 99 
2 43 100 
2 32 101 
2 39 102 
2 48 103 
2 108 104 
2 55 105 
2 56 106 
2 123 107 
2 142 108 
2 5 109 
2 109 55 
2 9 110 
2 42 111 
2 51 112 
2 126 113 
2 65 114 
2 143 115 
2 124 116 
2 155 117 
2 90 118 
2 68 119 
2 21 120 
2 162 121 
2 123 122 
2 131 123 
2 126 124 
2 45 125 
2 74 126 
2 118 127 
2 139 128 
2 96 129 
2 8 130 
2 23 131 
2 43 132 
2 75 133 
2 121 134 
2 116 135 
2 168 136 
2 76 137 
2 58 138 
2 117 139 
2 145 140 
2 34 141 
2 175 142 
2 133 143 
2 146 144 
2 170 145 
2 158 146 
2 136 147 
2 49 148 
2 51 149 
2 46 150 
2 91 151 
2 154 152 
2 101 153 
2 125 154 
2 148 155 
2 148 156 
2 130 157 
2 103 158 
2 150 159 
2 36 160 
2 113 161 
2 71 162 
2 87 163 
2 59 164 
2 71 165 
2 81 166 
2 44 167 
2 150 168 
2 174 169 
2 53 170 
2 64 171 
2 101 172 
2 85 173 
2 112 174 
2 52 175 
2 70 176 
2 152 177 
2 176 178 
2 35 179 
2 78 180 
2 33 181 
2 92 182 
2 97 183 
2 70 184 
2 88 185 
2 20 186 
2 25 187 
2 114 188 
2 188 189 
2 188 190 
2 152 191 
2 191 192 
2 191 193 
2 28 194 
2 194 195 
2 194 196 
2 27 197 
2 197 198 
2 197 199 
2 109 200 
2 138 201 
2 29 202 
2 104 203 
2 203 204 
2 203 205 
2 30 206 
2 172 207 
2 38 208 
2 125 209 
2 209 210 
2 209 211 
2 130 212 
2 212 213 
2 212 214 
2 140 165 
2 69 95 
2 164 89 
2 111 161 
2 206 99 
2 177 105 
2 54 127 
2 120 147 
2 105 95 
2 156 47 
2 163 14 
2 171 167 
2 167 182 
2 151 163 
2 15 164 
2 41 119 
2 137 127 
2 98 26 
2 161 129 
2 153 6 
2 14 61 
2 107 63 
2 128 120 
2 79 47 
2 50 41 
2 160 137 
2 173 6 
2 134 140 
2 18 173 

CELL_DATA 242
FIELD FieldData 10
radius 1 242 float
3.8 5.72357 8.7585 4.7877 6.49791 10.1399 2.5 9.15854 3.60562 
4.78233 6.67101 6.67101 6.02536 3.8 3.8 2.5 6.49791 8.7585 
6.03212 7.26914 10.1399 4.7877 9.15855 6.42821 2.5 7.0051 6.78605 
6.16553 2.5 5.87834 6.03212 5.38609 3.60562 4.27494 2.5 2.5 
3.60562 3.60562 6.29961 5.55995 3.8 2.5 5 3.8 3.9685 
4.78233 3.8 3.9685 3.60562 2.5 5.48055 2.5 3.8 5.87834 
8.7585 2.5 6.90506 10.1399 2.5 9.15855 2.5 5 6.89731 
6.67101 6.02536 2.5 3.8 3.1498 4.27494 8.7585 6.03212 9.15854 
10.4839 5.48055 9.15855 6.55186 2.5 7.0051 6.89732 6.16553 2.5 
6.02536 3.8 5.38609 3.9685 4.5428 2.5 3.1498 3.8 3.9685 
6.29961 5.72357 2.5 3.1498 5.20021 3.8 3.8 4.78233 5.48055 
3.9685 3.9685 2.5 3.8 2.5 3.8 2.5 6.49791 6.03212 
2.5 2.5 4.7877 3.8 3.1498 3.8 6.49791 3.1498 2.5 
2.5 3.8 3.9685 3.8 4.7877 6.90506 3.60562 7.26914 2.5 
2.5 2.5 3.60562 4.7877 2.5 4.7877 2.5 6.49791 2.5 
3.8 2.5 2.5 3.8 2.5 2.5 3.8 3.60562 3.8 
3.60562 2.5 3.60562 3.8 4.5428 3.8 3.1498 3.8 3.1498 
3.1498 2.5 3.1498 3.9685 4.27494 2.5 3.8 3.9685 2.5 
3.8 2.5 2.5 3.8 2.5 4.7877 3.8 2.5 4.7877 
3.8 4.7877 2.5 2.5 2.5 2.5 2.5 2.5 2.5 
2.5 2.5 2.5 2.5 3.8 2.5 2.5 2.5 2.5 
2.5 2.5 2.5 2.5 2.5 2.5 2.5 2.5 2.5 
3.8 2.5 2.5 2.5 2.5 2.5 2.5 3.8 2.5 
2.5 2.5 2.5 2.5 2.5 2.5 2.5 2.5 2.5 
2.5 2.5 2.5 2.5 2.5 2.5 2.5 2.5 2.5 
2.5 2.5 2.5 2.5 2.5 2.5 2.5 2.5 2.5 
2.5 2.5 2.5 2.5 2.5 2.5 2.5 2.5 
isCirculated 1 242 int
1 1 1 1 1 1 1 1 0 
1 1 1 1 1 1 1 1 1 
1 1 1 1 1 1 1 1 1 
1 1 1 1 1 1 1 1 1 
0 1 1 1 1 1 1 1 1 
1 1 0 1 1 1 0 1 1 
1 1 1 1 1 1 1 1 1 
1 1 1 1 0 1 1 1 1 
1 1 1 1 1 1 1 1 1 
1 1 1 1 1 1 1 1 1 
1 1 1 1 1 1 1 1 1 
0 0 0 1 1 1 0 1 1 
1 1 1 1 1 1 1 1 1 
1 1 1 1 1 1 1 1 1 
1 1 0 1 1 1 1 1 1 
1 1 1 1 1 0 1 0 1 
0 1 1 1 1 1 1 1 1 
1 1 0 0 1 1 1 1 1 
1 1 0 1 1 1 1 1 1 
1 1 0 0 1 0 0 0 0 
1 0 0 0 0 0 0 0 0 
0 0 0 0 0 0 0 0 0 
0 0 0 0 0 0 1 0 0 
0 0 0 0 0 0 1 1 1 
1 1 1 1 1 1 1 1 1 
1 1 1 1 1 1 1 1 1 
1 1 1 1 1 1 1 1 
isArtery 1 242 int
0 1 1 0 0 0 1 0 1 
1 1 1 1 0 0 1 0 1 
0 0 0 0 0 1 1 1 1 
1 1 1 0 1 1 1 1 1 
1 1 1 1 0 1 1 0 1 
1 0 1 1 1 0 1 0 1 
1 1 0 0 1 0 1 1 1 
1 1 1 0 1 1 1 0 0 
0 0 0 1 1 1 1 1 1 
1 0 1 1 1 1 1 0 1 
1 1 1 1 1 0 0 1 0 
1 1 1 0 1 0 1 0 0 
1 1 0 0 1 0 0 1 1 
1 0 1 0 0 0 1 0 1 
1 1 1 0 1 0 1 0 1 
0 1 1 0 1 1 0 1 0 
1 1 1 0 1 0 1 0 1 
1 1 1 1 1 1 0 1 1 
0 1 1 0 1 0 0 1 0 
0 0 1 1 1 1 1 1 1 
1 1 1 1 0 1 1 1 1 
1 1 1 1 1 1 1 1 1 
0 1 1 1 1 1 1 0 1 
1 1 1 1 1 1 0 0 0 
1 1 1 0 0 0 1 1 1 
0 0 1 0 0 0 0 0 0 
0 1 1 1 1 0 1 1 
isVein 1 242 int
1 0 0 1 1 1 0 1 0 
0 0 0 0 1 1 0 1 0 
1 1 1 1 1 0 0 0 0 
0 0 0 1 0 0 0 0 0 
0 0 0 0 1 0 0 1 0 
0 1 0 0 0 1 0 1 0 
0 0 1 1 0 1 0 0 0 
0 0 0 1 0 0 0 1 1 
1 1 1 0 0 0 0 0 0 
0 1 0 0 0 0 0 1 0 
0 0 0 0 0 1 1 0 1 
0 0 0 1 0 1 0 1 1 
0 0 1 1 0 1 1 0 0 
0 1 0 1 1 1 0 1 0 
0 0 0 1 0 1 0 1 0 
1 0 0 1 0 0 1 0 1 
0 0 0 1 0 1 0 1 0 
0 0 0 0 0 0 1 0 0 
1 0 0 1 0 1 1 0 1 
1 1 0 0 0 0 0 0 0 
0 0 0 0 1 0 0 0 0 
0 0 0 0 0 0 0 0 0 
1 0 0 0 0 0 0 1 0 
0 0 0 0 0 0 1 1 1 
0 0 0 1 1 1 0 0 0 
1 1 0 1 1 1 1 1 1 
1 0 0 0 0 1 0 0 
isCapillary 1 242 int
0 0 0 0 0 0 0 0 0 
0 0 0 0 0 0 0 0 0 
0 0 0 0 0 0 0 0 0 
0 0 0 0 0 0 0 0 0 
0 0 0 0 0 0 0 0 0 
0 0 0 0 0 0 0 0 0 
0 0 0 0 0 0 0 0 0 
0 0 0 0 0 0 0 0 0 
0 0 0 0 0 0 0 0 0 
0 0 0 0 0 0 0 0 0 
0 0 0 0 0 0 0 0 0 
0 0 0 0 0 0 0 0 0 
0 0 0 0 0 0 0 0 0 
0 0 0 0 0 0 0 0 0 
0 0 0 0 0 0 0 0 0 
0 0 0 0 0 0 0 0 0 
0 0 0 0 0 0 0 0 0 
0 0 0 0 0 0 0 0 0 
0 0 0 0 0 0 0 0 0 
0 0 0 0 0 0 0 0 0 
0 0 0 0 0 0 0 0 0 
0 0 0 0 0 0 0 0 0 
0 0 0 0 0 0 0 0 0 
0 0 0 0 0 0 1 1 1 
1 1 1 1 1 1 1 1 1 
1 1 1 1 1 1 1 1 1 
1 1 1 1 1 1 1 1 
IndexOfEdges2 1 242 int
0 1 2 3 4 5 6 7 8 
9 10 11 12 13 14 15 16 17 
18 19 20 21 22 23 24 25 26 
27 28 29 30 31 32 33 34 35 
36 37 38 39 40 41 42 43 44 
45 46 47 48 49 50 51 52 53 
54 55 56 57 58 59 60 61 62 
63 64 65 66 67 68 69 70 71 
72 73 74 75 76 77 78 79 80 
81 82 83 84 85 86 87 88 89 
90 91 92 93 94 95 96 97 98 
99 100 101 102 103 104 105 106 107 
108 109 110 111 112 113 114 115 116 
117 118 119 120 121 122 123 124 125 
126 127 128 129 130 131 132 133 134 
135 136 137 138 139 140 141 142 143 
144 145 146 147 148 149 150 151 152 
153 154 155 156 157 158 159 160 161 
162 163 164 165 166 167 168 169 170 
171 172 173 174 175 176 177 178 179 
180 181 182 183 184 185 186 187 188 
189 190 191 192 193 194 195 196 197 
198 199 200 201 202 203 204 205 206 
207 208 209 210 211 212 213 214 215 
216 217 218 219 220 221 222 223 224 
225 226 227 228 229 230 231 232 233 
234 235 236 237 238 239 240 241 
IndexOfEdges 2 242 int
13 54 56 17 57 2 169 3 59 
4 60 5 106 6 62 7 37 8 
64 9 65 10 66 11 67 12 124 
13 16 14 132 15 135 16 72 19 
73 20 74 21 75 22 76 23 77 
24 78 25 110 26 80 27 81 28 
82 29 83 30 84 31 16 32 86 
33 87 34 88 35 84 18 90 36 
144 37 92 38 93 39 94 40 122 
41 96 42 97 43 3 44 35 45 
100 46 133 47 102 48 121 49 94 
50 55 51 158 52 115 53 31 56 
19 57 117 58 21 59 22 60 141 
61 24 62 114 63 17 64 27 65 
28 66 29 67 10 68 149 69 157 
70 159 71 0 72 4 73 7 74 
1 75 20 76 5 77 10 78 138 
79 2 80 2 81 11 82 40 83 
12 84 172 85 40 86 11 87 9 
88 46 89 34 90 32 91 17 92 
25 93 39 94 45 95 38 96 33 
97 3 98 4 99 43 100 32 101 
39 102 48 103 108 104 55 105 56 
106 123 107 142 108 5 109 109 55 
9 110 42 111 51 112 126 113 65 
114 143 115 124 116 155 117 90 118 
68 119 21 120 162 121 123 122 131 
123 126 124 45 125 74 126 118 127 
139 128 96 129 8 130 23 131 43 
132 75 133 121 134 116 135 168 136 
76 137 58 138 117 139 145 140 34 
141 175 142 133 143 146 144 170 145 
158 146 136 147 49 148 51 149 46 
150 91 151 154 152 101 153 125 154 
148 155 148 156 130 157 103 158 150 
159 36 160 113 161 71 162 87 163 
59 164 71 165 81 166 44 167 150 
168 174 169 53 170 64 171 101 172 
85 173 112 174 52 175 70 176 152 
177 176 178 35 179 78 180 33 181 
92 182 97 183 70 184 88 185 20 
186 25 187 114 188 188 189 188 190 
152 191 191 192 191 193 28 194 194 
195 194 196 27 197 197 198 197 199 
109 200 138 201 29 202 104 203 203 
204 203 205 30 206 172 207 38 208 
125 209 209 210 209 211 130 212 212 
213 212 214 140 165 69 95 164 89 
111 161 206 99 177 105 54 127 120 
147 105 95 156 47 163 14 171 167 
167 182 151 163 15 164 41 119 137 
127 98 26 161 129 153 6 14 61 
107 63 128 120 79 47 50 41 160 
137 173 6 134 140 18 173 
hematocrit 1 242 float
0.518976 0.410329 0.37 0.384367 0.303677 0.364101 0.312241 0.353515 0 
0.432438 0.365079 0.385309 0.378007 0.518976 0.393151 0.359402 0.363269 0.37 
0.293755 0.328033 0.364101 0.290912 0.353515 0.379704 0.393709 0.349474 0.385309 
0.378007 0.349514 0.392422 0.345589 0.412347 0.365964 0.446883 0.319199 0.349442 
0 0.406924 0.379704 0.398284 0.294475 0.354833 0.412347 0.380634 0.446883 
0.429695 0.53059 0 0.493799 0.300504 0.405511 0 0.408159 0.392422 
0.37 0.437304 0.324776 0.364101 0.331755 0.353515 0.2863 0.418802 0.349474 
0.385309 0.378007 0.288474 0.506459 0 0.449116 0.37 0.293755 0.353515 
0.37 0.293755 0.353515 0.379704 0.437304 0.349474 0.385309 0.378007 0.349514 
0.378007 0.28157 0.412347 0.396691 0.446883 0.431808 0.38757 0.418252 0.397506 
0.379704 0.379704 0.541459 0.406924 0.412347 0.393709 0.349514 0.429695 0.316228 
0 0 0 0.424443 0.312241 0.2863 0 0.411474 0.411474 
0.393709 0.354833 0.384367 0.406924 0.2863 0.408159 0.363269 0.394807 0.418909 
0.288474 0.367361 0.458598 0.294475 0.290912 0.378545 0.313783 0.383158 0.418909 
0.338654 0.447221 0 0.290912 0.359402 0.460264 0.371752 0.363269 0.374369 
0.305577 0.437304 0.338654 0.408159 0.331755 0 0.408159 0 0.408159 
0 0.374369 0.493799 0.506459 0.428709 0.418252 0.313783 0.38996 0.313783 
0.394807 0.57316 0 0 0.449116 0.349442 0.406924 0.458598 0.434669 
0.395068 0.42968 0 0.380634 0.374369 0.384367 0.408159 0.380013 0.28157 
0.28157 0.384367 0 0 0.313783 0 0 0 0 
0.381299 0 0 0 0 0 0 0 0 
0 0 0 0 0 0 0 0 0 
0 0 0 0 0 0 0.349514 0 0 
0 0 0 0 0 0 0.42968 0.506459 0.431808 
0.354833 0.349514 0.313783 0.518976 0.374369 0.572251 0.57316 0.450056 0.380013 
0.381299 0.418252 0.359402 0.288474 0.18538 0.393709 0.447221 0.38996 0.331755 
0.2863 0.338654 0.437304 0.300504 0.349442 0.0802239 0.371752 0.319199 
flow 1 242 float
3635.94 28588.8 124788 12118.1 36569 117134 6384.86 95739.2 0 
12736.5 42749.9 71478.7 43546.1 3635.94 12425.5 5569.65 33426.6 124788 
30061.6 51482.6 117134 24234.3 95739.2 35896.3 3459.89 53309.6 71478.7 
43546.1 6507.39 34973.6 21001.1 22568 15440.2 9276.59 8572.5 4269.23 
0 7194.03 35896.3 29075.4 13674.5 3137.85 22568 8658.25 9276.59 
16998.3 3257.58 0 4030.11 6820.94 14656.3 0 4396.85 34973.6 
124788 1020.77 47545.4 117134 5976.95 95739.2 10559.7 17214 53309.6 
71478.7 43546.1 6853.61 2538.13 0 8426.97 124788 30061.6 95739.2 
124788 30061.6 95739.2 35896.3 1020.77 53309.6 71478.7 43546.1 6507.39 
43546.1 10174.8 22568 27932.6 9276.59 5406.74 9463.3 6043.74 11374.7 
35896.3 35896.3 5423.05 7194.03 22568 3459.89 6507.39 16998.3 14957.4 
0 0 0 6738.46 6384.86 10559.7 0 21394.7 21394.7 
3459.89 3137.85 12118.1 7194.03 10559.7 4396.85 33426.6 1793.3 5194.06 
6853.61 3937.14 5663.63 13674.5 24234.3 37062.6 3853.53 44256.6 5194.06 
772.529 4056.18 0 24234.3 5569.65 7654.44 1633.51 33426.6 3164.61 
5827.35 1020.77 772.529 4396.85 5976.95 0 4396.85 0 4396.85 
0 3164.61 4030.11 2538.13 11591.6 6043.74 3853.53 4782.58 3853.53 
1793.3 2236.81 0 0 8426.97 4269.23 7194.03 5663.63 12492.3 
10976.4 2763.34 0 8658.25 3164.61 12118.1 4396.85 4477.54 10174.8 
10174.8 12118.1 0 0 3853.53 0 0 0 0 
4180.71 0 0 0 0 0 0 0 0 
0 0 0 0 0 0 0 0 0 
0 0 0 0 0 0 6507.39 0 0 
0 0 0 0 0 0 2763.34 2538.13 5406.74 
3137.85 6507.39 3853.53 3635.94 3164.61 2884.93 2236.81 6448.59 4477.54 
4180.71 6043.74 5569.65 6853.61 1558.12 3459.89 4056.18 4782.58 5976.95 
10559.7 772.529 1020.77 6820.94 4269.23 1602.28 1633.51 8572.5 
shearforce 1 242 float
6.73753 13.9731 8.91775 10.5808 7.94152 4.77161 22.4066 5.59947 0 
12.4595 9.30081 16.1953 15.4644 6.73753 18.2409 21.1121 8.14378 8.91775 
8.94721 7.22459 4.7716 17.3094 5.59947 9.49201 13.8638 9.10151 15.0189 
13.8894 24.273 14.4146 6.93096 15.0556 24.1857 11.8332 30.4296 15.9227 
0 12.0897 10.4061 15.9594 16.852 11.8062 19.1294 12.4271 13.7593 
16.5207 6.17159 0 7.8825 23.4786 8.79882 0 6.63238 14.4146 
8.91775 4.3867 8.24461 4.77161 21.6573 5.59947 35.5047 14.8205 9.72861 
16.1953 15.4644 23.1268 4.59295 0 10.8008 8.91775 8.94721 5.59948 
4.54725 14.069 5.59947 8.71263 4.3867 9.10151 13.9886 13.8894 24.273 
15.4644 12.2607 15.0556 37.6322 10.4489 23.0318 20.6306 9.28551 15.3482 
10.4061 16.3643 27.4818 16.1691 17.5657 5.08428 8.83495 16.5207 7.34111 
0 0 0 10.4705 22.4066 12.8295 0 5.75981 8.13295 
13.8638 11.8062 10.5808 10.8274 19.6419 6.63238 8.14378 3.95432 21.6734 
23.1268 5.51811 8.59436 16.852 17.3094 7.12151 5.52466 6.88558 21.6734 
2.83098 17.7093 0 17.3094 21.1121 7.99096 6.31727 8.14378 12.2905 
7.32201 4.3867 2.83098 6.63238 21.6573 0 6.63238 0 6.63238 
0 12.2905 7.8825 4.59295 12.5275 9.28551 7.48245 6.98054 7.48245 
3.95432 11.9119 0 0 10.8008 15.9227 10.8274 8.59436 53.4593 
16.1693 11.7314 0 12.4271 12.2905 10.5808 6.63238 17.5491 7.12985 
12.2607 10.5808 0 0 13.5576 0 0 0 0 
16.4198 0 0 0 0 0 0 0 0 
0 0 0 0 0 0 0 0 0 
0 0 0 0 0 0 24.273 0 0 
0 0 0 0 0 0 11.7314 12.1731 23.0318 
11.8062 24.273 13.5576 17.7857 12.2905 15.3416 11.9119 28.2821 17.5491 
16.4198 25.1923 21.1121 23.1268 4.42113 13.8638 17.7093 19.0482 21.6573 
35.5047 2.83098 4.3867 23.4786 15.9227 3.78516 6.31727 30.4296 
POINT_DATA 215
FIELD FieldData 2
point_radius 1 215 float
8.7585 10.4839 7.55364 4.12923 5.44334 8.5988 2.5 9.15854 3.60562 
3.94171 5.24095 5.60168 6.02536 3.8 2.93333 2.5 5.44334 4.89736 
2.5 8.7585 5.10422 5.9914 10.1399 4.7877 9.15855 5.07594 2.5 
5.46747 5.31902 4.89696 2.5 5.87834 5.10422 4.3621 3.08514 3.58115 
2.5 3.60562 3.08514 5.33056 4.48201 2.93333 2.5 4.09411 3.8 
3.35804 3.94171 2.93333 3.9685 3.60562 2.5 4.68942 2.5 3.8 
3.15 5.10422 4.70064 8.7585 2.5 5.73432 10.1399 2.5 9.15854 
2.5 4.09411 5.57271 6.67101 6.02536 2.5 3.15 2.7166 3.58115 
8.7585 6.03212 7.89894 8.47052 4.68942 9.15855 5.16002 2.5 7.0051 
5.39445 6.16553 2.5 4.80123 3.8 5.38609 3.35804 3.77258 2.5 
2.7166 3.8 3.35804 6.29961 4.59451 2.5 2.7166 4.2334 3.15 
3.15 4.78233 4.68942 3.9685 3.9685 2.5 2.93333 2.5 3.15 
2.5 5.44334 2.5 2.5 4.7877 3.8 2.7166 3.8 6.49791 
2.7166 2.5 2.5 2.93333 3.35804 3.8 4.12923 5.73432 3.08514 
5.9914 2.5 2.5 2.5 3.08514 4.7877 2.5 4.12923 2.5 
6.49791 2.5 2.93333 2.5 2.5 2.93333 2.5 2.5 3.8 
3.60562 3.8 3.60562 2.5 3.08514 3.8 3.77258 3.15 2.7166 
3.15 3.1498 3.1498 2.5 3.1498 3.35804 4.27494 2.5 2.93333 
3.9685 2.5 2.93333 2.5 2.5 2.93333 2.5 4.7877 3.8 
2.5 4.12923 2.93333 4.7877 2.5 2.5 2.5 2.5 2.5 
2.5 2.5 2.5 2.5 2.5 2.5 3.8 2.5 2.5 
2.5 2.5 2.5 2.5 2.5 2.5 2.5 2.5 2.5 
2.5 2.5 3.8 2.5 2.5 2.5 2.5 2.5 2.5 
3.8 2.5 2.5 2.5 2.5 2.5 2.5 2.5 
pressure_at_node 1 215 float
40.4441 26.6401 39.6499 29.4726 28.261 26.9999 31.0443 27.4768 0 
32.9776 38.5963 37.876 35.9965 28.3276 29.6511 30.4991 28.715 34.0636 
33.1225 40.047 28.8395 27.7898 26.8164 30.045 27.2384 38.049 30.8148 
39.1432 38.8228 36.9975 32.5009 35.0179 28.9391 35.1974 34.7189 31.9893 
32.1997 0 32.6556 37.4048 36.2875 33.1846 30.7337 33.7926 30.1103 
31.3132 32.4454 27.3668 0 29.6514 35.0159 27.7487 0 28.0711 
28.6733 27.4357 34.5397 39.8484 28.3933 28.0227 26.9082 31.3403 27.3576 
34.8828 33.4856 38.8681 38.3494 36.497 36.7924 28.2201 0 30.9223 
40.2455 28.5502 27.596 26.7246 29.34 27.1191 38.337 27.709 39.3965 
39.2544 37.4367 34.3942 35.496 30.1198 35.7425 36.0269 32.5291 30.6489 
33.4417 29.4156 33.3095 37.7269 36.8473 29.1696 31.6546 34.5387 29.7335 
28.7144 33.119 29.2003 34.5452 0 0 27.973 32.792 32.1134 
0 27.1728 31.8962 29.8129 28.1797 28.3364 37.6521 27.7308 28.2262 
28.7355 31.7511 34.9885 28.073 30.0777 32.3198 31.455 27.9819 31.0144 
27.7807 30.0606 28.2938 30.2733 0 30.75 32.1459 27.0501 29.5849 
28.4706 29.9903 29.7158 28.0511 28.5146 29.0922 33.0296 0 27.3904 
0 28.7518 0 29.0317 29.2251 27.9844 31.9076 29.8921 30.088 
29.5585 30.5512 28.9803 28.2959 0 0 31.4149 30.9577 28.892 
30.5 31.8571 28.8524 30.0072 0 30.748 30.949 29.0416 28.4115 
32.1168 29.4907 30.749 28.6107 0 0 29.0305 0 0 
0 0 32.0287 0 0 0 29.1969 0 0 
0 0 0 0 0 0 0 0 0 
0 0 0 0 0 0 0 0 30.6077 
0 0 0 0 0 0 0 0 
