# vtk DataFile Version 4.2
vtk output
ASCII
DATASET POLYDATA
POINTS 449 float
0 300.222 212.289 1040 900.666 636.867 910 825.611 424.578 
910 975.722 212.289 780 600.444 424.578 260 300.222 212.289 
390 225.167 0 390 375.278 424.578 780 450.333 636.867 
520 450.333 636.867 650 225.167 636.867 780 1200.89 212.289 
975 112.583 318.434 910 1275.94 424.578 650 225.167 0 
260 150.111 1061.45 780 450.333 0 390 225.167 636.867 
130 375.278 1061.45 260 300.222 849.156 650 675.5 0 
390 675.5 0 0 750.555 849.156 910 1125.83 636.867 
780 900.666 636.867 650 375.278 424.578 390 525.389 849.156 
260 750.555 849.156 -130 1275.94 424.578 0 300.222 849.156 
0 450.333 636.867 520 300.222 849.156 650 675.5 636.867 
390 1200.89 530.723 0 600.444 424.578 260 900.666 636.867 
130 525.389 849.156 520 900.666 636.867 260 750.555 212.289 
780 150.111 424.578 260 600.444 424.578 780 750.555 849.156 
520 750.555 849.156 780 300.222 212.289 780 300.222 849.156 
520 750.555 212.289 910 225.167 636.867 650 975.722 849.156 
390 75.0555 212.289 650 825.611 1061.45 -130 900.666 318.434 
390 975.722 849.156 130 825.611 1061.45 130 975.722 849.156 
130 525.389 212.289 650 75.0555 212.289 130 1125.83 318.434 
390 525.389 212.289 520 150.111 1061.45 130 375.278 424.578 
260 150.111 424.578 910 75.0555 849.156 65 1238.42 318.434 
0 600.444 1061.45 650 825.611 424.578 1105 262.694 106.145 
520 1200.89 849.156 130 675.5 636.867 650 525.389 849.156 
975 788.083 955.301 1105 337.75 318.434 390 825.611 1061.45 
975 37.5278 743.012 455 938.194 1061.45 845 187.639 849.156 
-130 1050.78 1061.45 780 1050.78 424.578 1040 1050.78 424.578 
65 938.194 424.578 1040 150.111 106.145 130 825.611 424.578 
455 788.083 955.301 390 825.611 424.578 1040 300.222 849.156 
65 1238.42 636.867 -65 1313.47 212.289 390 975.722 212.289 
1105 562.917 318.434 1040 975.722 849.156 1170 900.666 636.867 
-65 262.694 106.145 -130 225.167 0 975 863.139 530.723 
910 900.666 318.434 845 713.028 424.578 130 300.222 212.289 
325 262.694 106.145 325 337.75 318.434 780 525.389 530.723 
650 450.333 636.867 650 300.222 530.723 845 1088.31 212.289 
-65 1088.31 530.723 845 1238.42 318.434 520 225.167 0 
390 150.111 1061.45 715 337.75 0 390 300.222 530.723 
195 262.694 1061.45 325 262.694 743.012 715 562.917 0 
520 675.5 0 65 637.972 849.156 910 1200.89 530.723 
845 1013.25 636.867 715 337.75 318.434 455 487.861 743.012 
325 637.972 849.156 390 1125.83 0 130 300.222 849.156 
0 375.278 743.012 585 262.694 743.012 650 750.555 530.723 
260 1125.83 0 0 525.389 530.723 260 825.611 743.012 
130 450.333 955.301 390 900.666 636.867 325 713.028 106.145 
845 187.639 530.723 260 675.5 318.434 780 825.611 743.012 
650 750.555 849.156 715 187.639 212.289 715 412.805 849.156 
455 637.972 212.289 845 262.694 743.012 585 938.194 743.012 
325 112.583 318.434 650 900.666 955.301 195 1313.47 530.723 
260 975.722 849.156 65 713.028 1061.45 65 863.139 849.156 
65 562.917 318.434 520 75.0555 212.289 715 1013.25 955.301 
260 525.389 212.289 520 225.167 955.301 195 487.861 424.578 
195 262.694 424.578 715 637.972 849.156 195 938.194 1061.45 
65 487.861 1061.45 585 788.083 318.434 650 1200.89 849.156 
455 1088.31 849.156 130 600.444 743.012 650 600.444 743.012 
975 187.639 212.289 -130 975.722 212.289 260 825.611 1061.45 
1170 675.5 0 975 37.5278 424.578 1105 562.917 636.867 
0 1275.94 743.012 715 938.194 424.578 910 1050.78 424.578 
260 1275.94 424.578 390 1275.94 424.578 130 750.555 530.723 
0 825.611 424.578 260 825.611 424.578 910 300.222 849.156 
1105 187.639 849.156 -130 1275.94 106.145 455 863.139 212.289 
390 1050.78 106.145 1040 600.444 106.145 715 1088.31 849.156 
0 675.5 0 780 1125.83 955.301 1235 1163.36 743.012 
585 938.194 1061.45 1170 1125.83 955.301 780 900.666 955.301 
1105 412.805 530.723 1040 450.333 318.434 260 900.666 0 
325 1238.42 0 455 1238.42 0 -65 1163.36 106.145 
780 825.611 1061.45 845 112.583 318.434 715 788.083 955.301 
-130 750.555 212.289 1170 375.278 424.578 715 938.194 1061.45 
130 1050.78 106.145 1105 1238.42 955.301 520 1125.83 0 
65 938.194 106.145 65 1313.47 530.723 65 1163.36 106.145 
260 1200.89 530.723 1040 675.5 0 1040 225.167 318.434 
650 1125.83 636.867 650 1125.83 955.301 -195 1013.25 318.434 
585 938.194 106.145 715 938.194 743.012 1170 1050.78 1061.45 
-65 713.028 424.578 -130 675.5 318.434 845 637.972 849.156 
0 1200.89 530.723 975 938.194 1061.45 455 863.139 849.156 
1170 1200.89 212.289 780 975.722 849.156 -65 938.194 106.145 
1105 112.583 0 455 863.139 530.723 -195 1088.31 530.723 
1105 487.861 106.145 1235 487.861 424.578 1170 375.278 106.145 
520 825.611 743.012 1170 225.167 0 130 900.666 0 
195 1013.25 636.867 -65 1238.42 318.434 -65 938.194 1061.45 
1170 525.389 212.289 910 900.666 955.301 520 1275.94 424.578 
325 1313.47 212.289 0 1275.94 106.145 1040 75.0555 849.156 
-195 863.139 212.289 585 412.805 849.156 910 750.555 849.156 
910 1125.83 955.301 0 1050.78 106.145 0 1200.89 849.156 
520 1200.89 530.723 325 1163.36 424.578 1170 525.389 530.723 
455 1013.25 318.434 195 1238.42 955.301 1170 900.666 0 
1105 1013.25 955.301 1105 562.917 0 1170 300.222 530.723 
130 975.722 212.289 1105 487.861 424.578 1170 75.0555 212.289 
0 1200.89 212.289 1105 562.917 955.301 975 1013.25 955.301 
520 600.444 743.012 390 1200.89 212.289 130 1050.78 1061.45 
585 788.083 955.301 195 1163.36 1061.45 1105 788.083 0 
-65 1313.47 530.723 130 1200.89 212.289 650 225.167 955.301 
975 262.694 424.578 260 1275.94 106.145 325 863.139 212.289 
260 825.611 106.145 -130 1050.78 424.578 455 1163.36 106.145 
1105 262.694 424.578 1235 262.694 106.145 -130 1125.83 636.867 
585 637.972 849.156 325 1163.36 106.145 910 675.5 0 
1170 225.167 318.434 65 1013.25 318.434 1170 150.111 106.145 
585 1013.25 0 1170 1200.89 849.156 650 1200.89 530.723 
0 1275.94 424.578 715 187.639 849.156 1105 1013.25 318.434 
1040 900.666 318.434 1170 1125.83 318.434 585 337.75 955.301 
585 1088.31 849.156 1170 1050.78 106.145 -65 1088.31 212.289 
1105 1088.31 212.289 1105 1238.42 318.434 0 1125.83 955.301 
65 1013.25 0 1235 487.861 743.012 65 1313.47 212.289 
195 1163.36 106.145 195 1088.31 530.723 1040 225.167 0 
910 375.278 424.578 1040 375.278 424.578 325 1013.25 0 
1170 825.611 106.145 195 1313.47 849.156 325 1013.25 318.434 
1040 300.222 212.289 585 1238.42 318.434 975 788.083 318.434 
1040 675.5 318.434 -65 788.083 0 65 1238.42 955.301 
-130 1275.94 743.012 -65 1238.42 955.301 -65 1238.42 636.867 
-195 1088.31 849.156 130 1200.89 849.156 520 675.5 636.867 
0 1050.78 424.578 -130 1200.89 530.723 1105 1163.36 1061.45 
1105 938.194 106.145 585 1313.47 212.289 1105 1088.31 849.156 
455 788.083 636.867 845 788.083 955.301 1235 487.861 1061.45 
-65 1163.36 424.578 1040 300.222 530.723 1040 525.389 849.156 
-130 1125.83 955.301 195 1088.31 212.289 65 1088.31 212.289 
520 525.389 849.156 975 713.028 1061.45 1105 1013.25 0 
65 1313.47 849.156 0 900.666 0 455 1013.25 0 
1040 375.278 106.145 975 337.75 318.434 1105 788.083 955.301 
975 1163.36 1061.45 520 975.722 849.156 455 1163.36 424.578 
-130 1200.89 849.156 910 1050.78 1061.45 1105 112.583 318.434 
650 1125.83 0 1105 337.75 0 910 75.0555 212.289 
-130 1050.78 743.012 1040 75.0555 212.289 975 112.583 0 
-65 1088.31 849.156 1040 525.389 212.289 650 825.611 743.012 
1040 75.0555 530.723 1040 600.444 1061.45 325 1088.31 212.289 
455 938.194 424.578 1170 600.444 743.012 520 1050.78 424.578 
780 675.5 636.867 390 1125.83 318.434 520 825.611 1061.45 
780 600.444 743.012 1040 375.278 1061.45 1105 713.028 106.145 
1040 1050.78 106.145 1040 900.666 955.301 1170 1125.83 636.867 
520 1200.89 212.289 325 1238.42 318.434 260 1200.89 212.289 
260 975.722 212.289 195 1238.42 318.434 520 1275.94 106.145 
1170 300.222 212.289 975 112.583 636.867 910 225.167 0 
0 1125.83 0 585 863.139 849.156 455 1088.31 212.289 
455 1238.42 318.434 130 1125.83 0 1105 487.861 1061.45 
585 713.028 1061.45 1040 1200.89 849.156 715 713.028 1061.45 
520 900.666 955.301 65 1013.25 636.867 0 1125.83 318.434 
130 1125.83 636.867 -130 975.722 849.156 -130 825.611 1061.45 
455 713.028 424.578 130 1200.89 530.723 -65 1163.36 1061.45 
1040 525.389 530.723 1040 600.444 424.578 1040 450.333 636.867 
650 1050.78 743.012 1170 600.444 424.578 1170 675.5 318.434 
1105 637.972 530.723 975 1238.42 955.301 910 1200.89 849.156 
910 1275.94 1061.45 1040 825.611 106.145 1040 900.666 0 
1040 750.555 212.289 975 713.028 106.145 910 825.611 106.145 
975 637.972 212.289 1170 375.278 743.012 1235 262.694 743.012 
1040 375.278 743.012 845 788.083 636.867 845 863.139 530.723 
910 825.611 743.012 455 713.028 1061.45 520 600.444 1061.45 
325 713.028 1061.45 1040 1200.89 212.289 975 1088.31 212.289 
975 1313.47 212.289 975 412.805 530.723 910 525.389 530.723 
975 337.75 636.867 -130 1125.83 0 -195 1013.25 0 
-195 1238.42 0 -65 863.139 849.156 -130 825.611 743.012 
0 900.666 955.301 455 562.917 955.301 455 637.972 849.156 
390 600.444 743.012 455 713.028 743.012 585 713.028 743.012 
845 863.139 849.156 715 863.139 849.156 
LINES 451 1353
2 90 91 
2 92 2 
2 93 3 
2 94 4 
2 95 5 
2 96 6 
2 97 7 
2 98 8 
2 99 9 
2 100 10 
2 101 11 
2 159 12 
2 103 13 
2 104 14 
2 105 15 
2 106 16 
2 107 17 
2 108 18 
2 109 19 
2 110 20 
2 111 21 
2 112 22 
2 113 23 
2 114 24 
2 115 25 
2 116 26 
2 117 27 
2 288 28 
2 119 29 
2 120 30 
2 121 31 
2 122 32 
2 204 33 
2 124 34 
2 125 35 
2 126 36 
2 127 37 
2 128 38 
2 129 39 
2 130 40 
2 131 41 
2 279 42 
2 133 43 
2 134 44 
2 135 45 
2 136 46 
2 137 47 
2 138 48 
2 139 49 
2 240 50 
2 141 51 
2 142 52 
2 143 53 
2 144 54 
2 145 55 
2 337 56 
2 147 57 
2 148 58 
2 149 59 
2 150 60 
2 72 61 
2 56 62 
2 153 63 
2 154 64 
2 227 65 
2 156 66 
2 157 67 
2 158 68 
2 242 69 
2 206 70 
2 161 71 
2 239 72 
2 71 73 
2 61 74 
2 404 75 
2 166 76 
2 167 77 
2 324 78 
2 65 79 
2 170 80 
2 42 81 
2 172 82 
2 173 83 
2 165 84 
2 175 85 
2 176 86 
2 315 87 
2 1 89 
2 0 90 
2 1 92 
2 2 93 
2 2 94 
2 0 95 
2 5 96 
2 5 97 
2 4 98 
2 8 99 
2 25 100 
2 3 101 
2 274 102 
2 11 103 
2 6 104 
2 58 105 
2 14 106 
2 7 107 
2 15 108 
2 17 109 
2 16 110 
2 20 111 
2 36 112 
2 13 113 
2 23 114 
2 43 115 
2 9 116 
2 26 117 
2 189 118 
2 19 119 
2 29 120 
2 10 121 
2 64 122 
2 118 123 
2 30 124 
2 27 125 
2 18 126 
2 35 127 
2 21 128 
2 46 129 
2 38 130 
2 24 131 
2 41 132 
2 55 133 
2 68 134 
2 57 135 
2 44 136 
2 37 137 
2 60 138 
2 47 139 
2 202 140 
2 53 141 
2 63 142 
2 22 143 
2 34 144 
2 48 145 
2 208 146 
2 54 147 
2 31 148 
2 40 149 
2 59 150 
2 279 151 
2 52 152 
2 18 153 
2 45 154 
2 66 155 
2 51 156 
2 36 157 
2 32 158 
2 79 159 
2 240 160 
2 52 161 
2 253 162 
2 12 163 
2 248 164 
2 342 165 
2 64 166 
2 76 167 
2 169 168 
2 390 169 
2 67 170 
2 80 171 
2 80 172 
2 44 173 
2 83 174 
2 191 175 
2 45 176 
2 86 177 
2 361 178 
2 376 88 
2 155 179 
2 316 180 
2 179 181 
2 286 182 
2 73 183 
2 252 184 
2 146 185 
2 256 186 
2 70 187 
2 273 188 
2 190 189 
2 275 190 
2 203 191 
2 197 192 
2 39 193 
2 185 194 
2 214 195 
2 70 196 
2 183 197 
2 303 198 
2 184 199 
2 344 200 
2 230 201 
2 84 202 
2 238 203 
2 140 204 
2 162 205 
2 353 206 
2 287 207 
2 294 208 
2 50 209 
2 285 210 
2 220 211 
2 252 212 
2 171 213 
2 213 214 
2 151 215 
2 325 216 
2 352 217 
2 42 218 
2 292 219 
2 146 220 
2 244 221 
2 359 222 
2 82 223 
2 274 224 
2 234 225 
2 196 226 
2 225 227 
2 362 228 
2 222 229 
2 188 230 
2 399 231 
2 85 232 
2 75 233 
2 87 234 
2 185 235 
2 246 236 
2 271 237 
2 302 238 
2 174 239 
2 195 240 
2 293 241 
2 215 242 
2 181 243 
2 198 244 
2 319 245 
2 33 246 
2 204 247 
2 226 248 
2 370 249 
2 265 250 
2 266 251 
2 260 252 
2 178 253 
2 186 254 
2 201 255 
2 87 256 
2 284 257 
2 296 258 
2 364 259 
2 243 260 
2 323 261 
2 280 262 
2 152 263 
2 194 264 
2 263 265 
2 162 266 
2 288 267 
2 258 268 
2 289 269 
2 334 270 
2 280 271 
2 176 272 
2 272 273 
2 209 274 
2 177 275 
2 270 276 
2 284 277 
2 102 278 
2 339 279 
2 177 280 
2 205 281 
2 276 282 
2 338 283 
2 222 284 
2 200 285 
2 184 286 
2 246 287 
2 232 288 
2 74 289 
2 77 290 
2 290 291 
2 290 292 
2 269 293 
2 349 294 
2 297 295 
2 160 296 
2 219 297 
2 292 298 
2 336 299 
2 391 300 
2 367 301 
2 62 302 
2 268 303 
2 403 304 
2 65 305 
2 307 306 
2 346 307 
2 118 308 
2 327 309 
2 250 310 
2 370 311 
2 345 312 
2 236 313 
2 291 314 
2 314 315 
2 343 316 
2 319 317 
2 320 318 
2 336 319 
2 267 320 
2 357 321 
2 317 322 
2 330 323 
2 333 324 
2 224 325 
2 212 326 
2 295 327 
2 313 328 
2 88 329 
2 223 330 
2 192 331 
2 392 332 
2 325 333 
2 186 334 
2 259 335 
2 321 336 
2 255 337 
2 258 338 
2 241 339 
2 69 340 
2 251 341 
2 310 342 
2 221 343 
2 308 344 
2 355 345 
2 312 346 
2 69 347 
2 326 348 
2 218 349 
2 247 350 
2 318 351 
2 348 352 
2 358 353 
2 200 354 
2 229 355 
2 193 356 
2 278 357 
2 356 358 
2 305 359 
2 351 360 
2 187 361 
2 211 362 
2 163 363 
2 340 364 
2 380 365 
2 368 366 
2 164 367 
2 350 368 
2 372 369 
2 379 370 
2 396 371 
2 151 372 
2 392 373 
2 309 374 
2 341 375 
2 217 376 
2 182 377 
2 262 378 
2 237 379 
2 382 380 
2 311 381 
2 56 382 
2 378 383 
2 282 384 
2 363 385 
2 305 386 
2 300 387 
2 362 388 
2 365 389 
2 262 390 
2 123 391 
2 364 392 
2 395 393 
2 329 394 
2 192 395 
2 388 396 
2 399 397 
2 338 398 
2 403 399 
2 360 400 
2 233 401 
2 82 402 
2 216 403 
2 299 404 
2 248 405 
2 405 406 
2 405 407 
2 207 408 
2 226 409 
2 409 410 
2 409 411 
2 199 412 
2 412 413 
2 412 414 
2 309 415 
2 415 416 
2 415 417 
2 205 418 
2 418 419 
2 418 420 
2 301 421 
2 421 422 
2 421 423 
2 369 424 
2 424 425 
2 424 426 
2 371 427 
2 427 428 
2 427 429 
2 219 430 
2 430 431 
2 430 432 
2 307 433 
2 433 434 
2 433 435 
2 387 436 
2 436 437 
2 436 438 
2 400 439 
2 439 440 
2 439 441 
2 393 49 
2 428 442 
2 442 443 
2 443 444 
2 444 445 
2 445 446 
2 446 132 
2 331 447 
2 447 448 
2 448 132 
2 49 264 

CELL_DATA 451
FIELD FieldData 10
radius 1 451 float
28.3483 13.6072 10.8 10.8 28.3483 19.6557 24.7645 10.8 10.8 
19.6556 10.8 7.5 10.8 19.6557 19.6556 19.6556 24.7645 19.6556 
24.7645 19.6556 19.6556 10.8169 10.8 10.8 19.6556 10.8 10.8 
7.5 24.7645 24.7645 19.6556 18.4966 9.44941 24.7645 10.8 17.635 
10.8 19.6556 13.6284 19.6556 10.8 12.8248 19.6556 18.4966 24.7645 
13.6284 10.8 19.6556 10.8 13.6284 10.8169 12.8248 10.8169 24.7645 
19.6556 10.8169 24.7645 19.6556 19.6556 19.6556 15.6006 9.44942 12.8248 
22.2188 12.8248 10.8169 16.1583 18.4966 10.8169 13.6284 9.44941 15.6006 
9.44941 15.6006 7.5 16.6799 16.6799 7.5 7.5 16.1583 7.5 
9.44941 15.6006 10.8169 9.44941 14.347 14.347 13.6072 28.3483 13.6072 
10.8 10.8 28.3483 19.6557 24.7645 10.8 10.8 19.6556 10.8 
10.8169 10.8 19.6557 19.6556 19.6556 24.7645 19.6556 24.7645 19.6556 
19.6556 10.8169 10.8 10.8 19.6556 10.8 10.8 10.8169 24.7645 
24.7645 19.6556 18.4966 7.5 24.7645 10.8 17.635 10.8 19.6556 
13.6284 19.6556 10.8 10.8 19.6556 18.4966 24.7645 13.6284 10.8 
19.6556 10.8 10.8169 10.8169 12.8248 10.8169 24.7645 19.6556 11.9055 
24.7645 19.6556 19.6556 19.6556 11.9055 10.8169 12.8248 22.2188 10.8169 
10.8169 16.1583 18.4966 7.5 9.44941 9.44941 10.8169 7.5 7.5 
10.8169 16.6799 16.6799 7.5 7.5 16.1583 15 9.44941 15.6006 
15.6006 9.44941 16.1583 14.347 10.8169 7.5 10.8169 7.5 10.8169 
7.5 9.44941 9.44941 9.44941 9.44941 10.8169 10.8169 10.8169 10.8169 
9.44941 9.44941 13.6284 7.5 15 10.8169 9.44941 7.5 7.5 
9.44941 10.8169 10.8169 9.44942 10.8169 9.44941 13.6284 7.5 11.9055 
13.6284 7.5 9.44941 7.5 15 15 10.8169 9.44941 7.5 
11.9055 10.8169 9.44941 7.5 10.8169 7.5 10.8169 12.8248 10.8169 
12.8248 7.5 9.44941 10.8169 7.5 9.44941 7.5 12.8248 7.5 
7.5 9.44941 9.44942 15.6006 15 15.6006 10.8169 10.8169 7.5 
7.5 9.44941 7.5 9.44941 7.5 10.8169 7.5 10.8169 10.8169 
7.5 10.8169 9.44941 7.5 9.44941 7.5 10.8169 7.5 9.44941 
10.8169 7.5 10.8169 7.5 7.5 7.5 15.6006 7.5 9.44941 
10.8169 10.8169 13.6284 10.8169 7.5 7.5 10.8169 15.6006 11.9055 
7.5 7.5 7.5 7.5 7.5 7.5 7.5 9.44941 15.6006 
16.6799 14.347 11.9055 15.6006 11.9055 9.44941 9.44941 9.44941 7.5 
7.5 7.5 7.5 9.44942 7.5 7.5 11.9055 7.5 9.44941 
9.44941 9.44941 10.8169 7.5 9.44941 7.5 14.347 14.347 7.5 
7.5 7.5 9.44941 7.5 10.8169 7.5 7.5 7.5 10.8169 
7.5 9.44941 7.5 7.5 7.5 7.5 7.5 7.5 7.5 
7.5 10.8169 10.8169 7.5 15.6006 9.44941 7.5 10.8169 7.5 
9.44941 9.44941 9.44941 7.5 7.5 11.9055 7.5 7.5 7.5 
13.6284 7.5 9.44941 13.6284 10.8169 13.6284 10.8169 7.5 10.8169 
9.44941 7.5 9.44941 7.5 7.5 7.5 7.5 7.5 9.44941 
7.5 7.5 7.5 7.5 7.5 7.5 7.5 7.5 9.44941 
7.5 7.5 7.5 7.5 7.5 7.5 7.5 7.5 7.5 
7.5 7.5 7.5 7.5 7.5 7.5 7.5 7.5 7.5 
7.5 7.5 7.5 7.5 7.5 9.44941 7.5 7.5 7.5 
7.5 7.5 7.5 7.5 7.5 7.5 7.5 7.5 7.5 
7.5 7.5 7.5 7.5 7.5 7.5 7.5 7.5 7.5 
7.5 7.5 7.5 7.5 7.5 7.5 7.5 7.5 7.5 
7.5 7.5 7.5 7.5 7.5 7.5 7.5 7.5 5.5 
5.5 5.5 5.5 5.5 5.5 5.5 5.5 5.5 5.5 
5.5 
isCirculated 1 451 int
1 1 1 1 1 1 1 1 1 
1 1 0 1 1 1 1 1 1 
1 1 1 0 1 1 1 1 1 
0 1 1 1 1 0 1 1 0 
1 1 0 1 1 1 1 1 1 
0 1 1 1 0 0 1 0 1 
1 0 1 1 1 1 1 0 1 
1 0 0 0 1 0 0 1 1 
1 1 0 0 0 0 0 0 0 
0 1 0 0 0 0 1 1 1 
1 1 1 1 1 1 1 1 1 
0 1 1 1 1 1 1 1 1 
1 0 1 1 1 1 1 0 1 
1 1 1 0 1 1 0 1 1 
0 1 1 1 1 1 1 0 1 
1 1 0 0 1 0 1 1 1 
1 1 1 1 0 0 1 1 0 
0 0 1 0 0 1 0 0 0 
0 0 0 0 0 0 0 0 1 
1 0 0 0 0 0 0 0 0 
0 1 0 1 0 0 0 0 0 
0 1 0 1 0 0 1 0 0 
0 0 0 0 0 0 0 0 1 
0 0 1 0 0 0 0 0 0 
1 0 1 0 0 0 0 0 0 
0 0 0 0 0 0 0 0 0 
0 0 0 1 0 1 0 0 0 
0 0 0 0 0 0 0 0 0 
0 0 0 0 0 0 0 0 0 
0 1 0 0 0 0 1 0 0 
0 0 0 0 0 0 0 1 0 
0 0 0 0 0 0 0 0 1 
0 0 0 1 1 0 0 0 0 
0 0 0 0 0 0 0 0 0 
0 0 0 0 0 0 0 0 0 
0 0 0 0 0 0 0 0 0 
0 0 0 0 0 1 0 0 0 
0 0 0 0 1 0 0 0 0 
0 0 0 0 0 1 0 0 0 
0 0 0 0 0 0 0 0 0 
1 0 0 0 0 0 0 0 0 
1 0 0 0 0 0 0 0 0 
0 0 0 0 0 0 0 0 1 
0 0 0 0 1 0 1 1 0 
0 0 0 0 0 0 0 0 0 
0 0 0 0 0 0 0 0 0 
0 0 0 0 0 0 0 0 0 
0 0 1 1 0 0 0 0 0 
0 0 0 0 0 0 0 0 1 
1 1 1 1 1 1 1 1 1 
1 
isArtery 1 451 int
1 0 0 0 1 1 1 0 0 
1 0 1 0 1 1 1 1 1 
1 1 1 1 0 0 1 0 0 
1 1 1 1 1 1 1 0 1 
0 1 1 1 0 1 1 1 1 
1 0 1 0 1 1 1 1 1 
1 1 1 1 1 1 1 1 1 
1 1 1 1 1 1 1 1 1 
1 1 1 1 1 1 1 1 1 
1 1 1 1 1 1 0 1 0 
0 0 1 1 1 0 0 1 0 
1 0 1 1 1 1 1 1 1 
1 1 0 0 1 0 0 1 1 
1 1 1 1 1 0 1 0 1 
1 1 0 0 1 1 1 1 0 
1 0 1 1 1 1 1 1 1 
1 1 1 1 1 1 1 1 1 
1 1 1 1 1 1 1 1 1 
1 1 1 1 1 1 1 1 1 
1 1 1 1 1 1 1 1 1 
1 1 1 1 1 1 1 1 1 
1 1 1 1 1 1 1 1 1 
1 1 1 1 1 1 1 1 1 
1 1 1 1 1 1 1 1 1 
1 1 1 1 1 1 1 1 1 
1 1 1 1 1 1 1 1 1 
1 1 1 1 1 1 1 1 1 
1 1 1 1 1 1 1 1 1 
1 1 1 1 1 1 1 1 1 
1 1 1 1 1 1 1 1 1 
1 1 1 1 1 1 1 1 1 
1 1 1 1 1 1 1 1 1 
1 1 1 1 1 1 1 1 1 
1 1 1 1 1 1 1 1 1 
1 1 1 1 1 1 1 1 1 
1 1 1 1 1 1 1 1 1 
1 1 1 1 1 1 1 1 1 
1 1 1 1 1 1 1 1 1 
1 1 1 1 1 1 1 1 1 
1 1 1 1 1 1 1 1 1 
1 1 1 1 1 1 1 1 1 
1 1 1 1 1 1 1 1 1 
1 1 1 1 1 1 1 1 1 
1 1 1 1 1 1 1 1 1 
1 1 1 1 1 1 1 1 1 
1 1 1 1 1 1 1 1 1 
1 1 1 1 1 1 1 1 1 
1 1 1 1 1 1 1 1 1 
1 1 1 1 1 1 1 1 1 
1 1 1 1 1 1 1 1 1 
0 
isVein 1 451 int
0 1 1 1 0 0 0 1 1 
0 1 0 1 0 0 0 0 0 
0 0 0 0 1 1 0 1 1 
0 0 0 0 0 0 0 1 0 
1 0 0 0 1 0 0 0 0 
0 1 0 1 0 0 0 0 0 
0 0 0 0 0 0 0 0 0 
0 0 0 0 0 0 0 0 0 
0 0 0 0 0 0 0 0 0 
0 0 0 0 0 0 1 0 1 
1 1 0 0 0 1 1 0 1 
0 1 0 0 0 0 0 0 0 
0 0 1 1 0 1 1 0 0 
0 0 0 0 0 1 0 1 0 
0 0 1 1 0 0 0 0 1 
0 1 0 0 0 0 0 0 0 
0 0 0 0 0 0 0 0 0 
0 0 0 0 0 0 0 0 0 
0 0 0 0 0 0 0 0 0 
0 0 0 0 0 0 0 0 0 
0 0 0 0 0 0 0 0 0 
0 0 0 0 0 0 0 0 0 
0 0 0 0 0 0 0 0 0 
0 0 0 0 0 0 0 0 0 
0 0 0 0 0 0 0 0 0 
0 0 0 0 0 0 0 0 0 
0 0 0 0 0 0 0 0 0 
0 0 0 0 0 0 0 0 0 
0 0 0 0 0 0 0 0 0 
0 0 0 0 0 0 0 0 0 
0 0 0 0 0 0 0 0 0 
0 0 0 0 0 0 0 0 0 
0 0 0 0 0 0 0 0 0 
0 0 0 0 0 0 0 0 0 
0 0 0 0 0 0 0 0 0 
0 0 0 0 0 0 0 0 0 
0 0 0 0 0 0 0 0 0 
0 0 0 0 0 0 0 0 0 
0 0 0 0 0 0 0 0 0 
0 0 0 0 0 0 0 0 0 
0 0 0 0 0 0 0 0 0 
0 0 0 0 0 0 0 0 0 
0 0 0 0 0 0 0 0 0 
0 0 0 0 0 0 0 0 0 
0 0 0 0 0 0 0 0 0 
0 0 0 0 0 0 0 0 0 
0 0 0 0 0 0 0 0 0 
0 0 0 0 0 0 0 0 0 
0 0 0 0 0 0 0 0 0 
0 0 0 0 0 0 0 0 0 
1 
isCapillary 1 451 int
0 0 0 0 0 0 0 0 0 
0 0 0 0 0 0 0 0 0 
0 0 0 0 0 0 0 0 0 
0 0 0 0 0 0 0 0 0 
0 0 0 0 0 0 0 0 0 
0 0 0 0 0 0 0 0 0 
0 0 0 0 0 0 0 0 0 
0 0 0 0 0 0 0 0 0 
0 0 0 0 0 0 0 0 0 
0 0 0 0 0 0 0 0 0 
0 0 0 0 0 0 0 0 0 
0 0 0 0 0 0 0 0 0 
0 0 0 0 0 0 0 0 0 
0 0 0 0 0 0 0 0 0 
0 0 0 0 0 0 0 0 0 
0 0 0 0 0 0 0 0 0 
0 0 0 0 0 0 0 0 0 
0 0 0 0 0 0 0 0 0 
0 0 0 0 0 0 0 0 0 
0 0 0 0 0 0 0 0 0 
0 0 0 0 0 0 0 0 0 
0 0 0 0 0 0 0 0 0 
0 0 0 0 0 0 0 0 0 
0 0 0 0 0 0 0 0 0 
0 0 0 0 0 0 0 0 0 
0 0 0 0 0 0 0 0 0 
0 0 0 0 0 0 0 0 0 
0 0 0 0 0 0 0 0 0 
0 0 0 0 0 0 0 0 0 
0 0 0 0 0 0 0 0 0 
0 0 0 0 0 0 0 0 0 
0 0 0 0 0 0 0 0 0 
0 0 0 0 0 0 0 0 0 
0 0 0 0 0 0 0 0 0 
0 0 0 0 0 0 0 0 0 
0 0 0 0 0 0 0 0 0 
0 0 0 0 0 0 0 0 0 
0 0 0 0 0 0 0 0 0 
0 0 0 0 0 0 0 0 0 
0 0 0 0 0 0 0 0 0 
0 0 0 0 0 0 0 0 0 
0 0 0 0 0 0 0 0 0 
0 0 0 0 0 0 0 0 0 
0 0 0 0 0 0 0 0 0 
0 0 0 0 0 0 0 0 0 
0 0 0 0 0 0 0 0 0 
0 0 0 0 0 0 0 0 0 
0 0 0 0 0 0 0 0 0 
0 0 0 0 0 0 0 0 1 
1 1 1 1 1 1 1 1 1 
1 
IndexOfEdges2 1 451 int
0 1 2 3 4 5 6 7 8 
9 10 11 12 13 14 15 16 17 
18 19 20 21 22 23 24 25 26 
27 28 29 30 31 32 33 34 35 
36 37 38 39 40 41 42 43 44 
45 46 47 48 49 50 51 52 53 
54 55 56 57 58 59 60 61 62 
63 64 65 66 67 68 69 70 71 
72 73 74 75 76 77 78 79 80 
81 82 83 84 85 86 87 88 89 
90 91 92 93 94 95 96 97 98 
99 100 101 102 103 104 105 106 107 
108 109 110 111 112 113 114 115 116 
117 118 119 120 121 122 123 124 125 
126 127 128 129 130 131 132 133 134 
135 136 137 138 139 140 141 142 143 
144 145 146 147 148 149 150 151 152 
153 154 155 156 157 158 159 160 161 
162 163 164 165 166 167 168 169 170 
171 172 173 174 175 176 177 178 179 
180 181 182 183 184 185 186 187 188 
189 190 191 192 193 194 195 196 197 
198 199 200 201 202 203 204 205 206 
207 208 209 210 211 212 213 214 215 
216 217 218 219 220 221 222 223 224 
225 226 227 228 229 230 231 232 233 
234 235 236 237 238 239 240 241 242 
243 244 245 246 247 248 249 250 251 
252 253 254 255 256 257 258 259 260 
261 262 263 264 265 266 267 268 269 
270 271 272 273 274 275 276 277 278 
279 280 281 282 283 284 285 286 287 
288 289 290 291 292 293 294 295 296 
297 298 299 300 301 302 303 304 305 
306 307 308 309 310 311 312 313 314 
315 316 317 318 319 320 321 322 323 
324 325 326 327 328 329 330 331 332 
333 334 335 336 337 338 339 340 341 
342 343 344 345 346 347 348 349 350 
351 352 353 354 355 356 357 358 359 
360 361 362 363 364 365 366 367 368 
369 370 371 372 373 374 375 376 377 
378 379 380 381 382 383 384 385 386 
387 388 389 390 391 392 393 394 395 
396 397 398 399 400 401 402 403 404 
405 406 407 408 409 410 411 412 413 
414 415 416 417 418 419 420 421 422 
423 424 425 426 427 428 429 430 431 
432 433 434 435 436 437 438 439 440 
441 442 443 444 445 446 447 448 449 
450 
IndexOfEdges 2 451 int
90 91 92 2 93 3 94 4 95 
5 96 6 97 7 98 8 99 9 
100 10 101 11 159 12 103 13 104 
14 105 15 106 16 107 17 108 18 
109 19 110 20 111 21 112 22 113 
23 114 24 115 25 116 26 117 27 
288 28 119 29 120 30 121 31 122 
32 204 33 124 34 125 35 126 36 
127 37 128 38 129 39 130 40 131 
41 279 42 133 43 134 44 135 45 
136 46 137 47 138 48 139 49 240 
50 141 51 142 52 143 53 144 54 
145 55 337 56 147 57 148 58 149 
59 150 60 72 61 56 62 153 63 
154 64 227 65 156 66 157 67 158 
68 242 69 206 70 161 71 239 72 
71 73 61 74 404 75 166 76 167 
77 324 78 65 79 170 80 42 81 
172 82 173 83 165 84 175 85 176 
86 315 87 1 89 0 90 1 92 
2 93 2 94 0 95 5 96 5 
97 4 98 8 99 25 100 3 101 
274 102 11 103 6 104 58 105 14 
106 7 107 15 108 17 109 16 110 
20 111 36 112 13 113 23 114 43 
115 9 116 26 117 189 118 19 119 
29 120 10 121 64 122 118 123 30 
124 27 125 18 126 35 127 21 128 
46 129 38 130 24 131 41 132 55 
133 68 134 57 135 44 136 37 137 
60 138 47 139 202 140 53 141 63 
142 22 143 34 144 48 145 208 146 
54 147 31 148 40 149 59 150 279 
151 52 152 18 153 45 154 66 155 
51 156 36 157 32 158 79 159 240 
160 52 161 253 162 12 163 248 164 
342 165 64 166 76 167 169 168 390 
169 67 170 80 171 80 172 44 173 
83 174 191 175 45 176 86 177 361 
178 376 88 155 179 316 180 179 181 
286 182 73 183 252 184 146 185 256 
186 70 187 273 188 190 189 275 190 
203 191 197 192 39 193 185 194 214 
195 70 196 183 197 303 198 184 199 
344 200 230 201 84 202 238 203 140 
204 162 205 353 206 287 207 294 208 
50 209 285 210 220 211 252 212 171 
213 213 214 151 215 325 216 352 217 
42 218 292 219 146 220 244 221 359 
222 82 223 274 224 234 225 196 226 
225 227 362 228 222 229 188 230 399 
231 85 232 75 233 87 234 185 235 
246 236 271 237 302 238 174 239 195 
240 293 241 215 242 181 243 198 244 
319 245 33 246 204 247 226 248 370 
249 265 250 266 251 260 252 178 253 
186 254 201 255 87 256 284 257 296 
258 364 259 243 260 323 261 280 262 
152 263 194 264 263 265 162 266 288 
267 258 268 289 269 334 270 280 271 
176 272 272 273 209 274 177 275 270 
276 284 277 102 278 339 279 177 280 
205 281 276 282 338 283 222 284 200 
285 184 286 246 287 232 288 74 289 
77 290 290 291 290 292 269 293 349 
294 297 295 160 296 219 297 292 298 
336 299 391 300 367 301 62 302 268 
303 403 304 65 305 307 306 346 307 
118 308 327 309 250 310 370 311 345 
312 236 313 291 314 314 315 343 316 
319 317 320 318 336 319 267 320 357 
321 317 322 330 323 333 324 224 325 
212 326 295 327 313 328 88 329 223 
330 192 331 392 332 325 333 186 334 
259 335 321 336 255 337 258 338 241 
339 69 340 251 341 310 342 221 343 
308 344 355 345 312 346 69 347 326 
348 218 349 247 350 318 351 348 352 
358 353 200 354 229 355 193 356 278 
357 356 358 305 359 351 360 187 361 
211 362 163 363 340 364 380 365 368 
366 164 367 350 368 372 369 379 370 
396 371 151 372 392 373 309 374 341 
375 217 376 182 377 262 378 237 379 
382 380 311 381 56 382 378 383 282 
384 363 385 305 386 300 387 362 388 
365 389 262 390 123 391 364 392 395 
393 329 394 192 395 388 396 399 397 
338 398 403 399 360 400 233 401 82 
402 216 403 299 404 248 405 405 406 
405 407 207 408 226 409 409 410 409 
411 199 412 412 413 412 414 309 415 
415 416 415 417 205 418 418 419 418 
420 301 421 421 422 421 423 369 424 
424 425 424 426 371 427 427 428 427 
429 219 430 430 431 430 432 307 433 
433 434 433 435 387 436 436 437 436 
438 400 439 439 440 439 441 393 49 
428 442 442 443 443 444 444 445 445 
446 446 132 331 447 447 448 448 132 
49 264 
hematocrit 1 451 float
0.37 0.37 0.343766 0.385298 0.37 0.374977 0.365113 0.385298 0.385298 
0.374977 0.343766 0 0.343766 0.374977 0.374977 0.374977 0.365113 0.374977 
0.365113 0.374977 0.374977 0 0.343766 0.343766 0.374977 0.385298 0.385298 
0 0.365113 0.365113 0.374977 0.365113 0 0.365113 0.385298 0 
0.385298 0.374977 0 0.374977 0.343766 0.365113 0.374977 0.365113 0.365113 
0 0.385298 0.374977 0.385298 0 0 0.374977 0 0.365113 
0.374977 0 0.365113 0.374977 0.374977 0.374977 0.365113 0 0.374977 
0.365113 0 0 0 0.365113 0 0 0.374977 0.365113 
0.374977 0.365113 0 0 0 0 0 0 0 
0 0.365113 0 0 0 0 0.37 0.37 0.37 
0.343766 0.385298 0.37 0.374977 0.365113 0.385298 0.385298 0.374977 0.343766 
0 0.343766 0.374977 0.374977 0.374977 0.365113 0.374977 0.365113 0.374977 
0.374977 0 0.343766 0.343766 0.374977 0.385298 0.385298 0 0.365113 
0.365113 0.374977 0.365113 0 0.365113 0.385298 0 0.385298 0.374977 
0 0.374977 0.343766 0.343766 0.374977 0.365113 0.365113 0 0.385298 
0.374977 0.385298 0 0 0.374977 0 0.365113 0.374977 0.365113 
0.365113 0.374977 0.374977 0.374977 0 0 0.374977 0.365113 0 
0 0 0.365113 0 0 0.374977 0 0 0 
0 0 0 0 0 0 0 0 0.365113 
0.365113 0 0 0 0 0 0 0 0 
0 0.374977 0 0.386492 0 0 0 0 0 
0 0.374977 0 0.386492 0 0 0.374977 0 0 
0 0 0 0 0 0 0 0 0.365113 
0 0 0.310944 0 0 0 0 0 0 
0.365113 0 0.310944 0 0 0 0 0 0 
0 0 0 0 0 0 0 0 0 
0 0 0 0.365113 0 0.365113 0 0 0 
0 0 0 0 0 0 0 0 0 
0 0 0 0 0 0 0 0 0 
0 0.386492 0 0 0 0 0.365113 0 0 
0 0 0 0 0 0 0 0.365113 0 
0 0 0 0 0 0 0 0 0.365113 
0 0 0 0.365113 0.365113 0 0 0 0 
0 0 0 0 0 0 0 0 0 
0 0 0 0 0 0 0 0 0 
0 0 0 0 0 0 0 0 0 
0 0 0 0 0 0.364544 0 0 0 
0 0 0 0 0.365113 0 0 0 0 
0 0 0 0 0 0.365113 0 0 0 
0 0 0 0 0 0 0 0 0 
0.310944 0 0 0 0 0 0 0 0 
0.310944 0 0 0 0 0 0 0 0 
0 0 0 0 0 0 0 0 0.310944 
0 0 0 0 0.383698 0 0.383698 0.310944 0 
0 0 0 0 0 0 0 0 0 
0 0 0 0 0 0 0 0 0 
0 0 0 0 0 0 0 0 0 
0 0 0.310944 0.310944 0 0 0 0 0 
0 0 0 0 0 0 0 0 0.383698 
0.310944 0.310944 0.310944 0.310944 0.310944 0.310944 0.364544 0.364544 0.364544 
0.386492 
flow 1 451 float
2.38558e+06 2.38558e+06 878722 1.50686e+06 2.38558e+06 1.18186e+06 1.20372e+06 1.50686e+06 1.50686e+06 
1.18186e+06 878722 0 878722 1.18186e+06 1.18186e+06 1.18186e+06 1.20372e+06 1.18186e+06 
1.20372e+06 1.18186e+06 1.18186e+06 0 878722 878722 1.18186e+06 1.50686e+06 1.50686e+06 
0 1.20372e+06 1.20372e+06 1.18186e+06 1.20372e+06 0 1.20372e+06 1.50686e+06 0 
1.50686e+06 1.18186e+06 0 1.18186e+06 878722 1.20372e+06 1.18186e+06 1.20372e+06 1.20372e+06 
0 1.50686e+06 1.18186e+06 1.50686e+06 0 0 1.18186e+06 0 1.20372e+06 
1.18186e+06 0 1.20372e+06 1.18186e+06 1.18186e+06 1.18186e+06 1.20372e+06 0 1.18186e+06 
1.20372e+06 0 0 0 1.20372e+06 0 0 1.18186e+06 1.20372e+06 
1.18186e+06 1.20372e+06 0 0 0 0 0 0 0 
0 1.20372e+06 0 0 0 0 2.38558e+06 2.38558e+06 2.38558e+06 
878722 1.50686e+06 2.38558e+06 1.18186e+06 1.20372e+06 1.50686e+06 1.50686e+06 1.18186e+06 878722 
0 878722 1.18186e+06 1.18186e+06 1.18186e+06 1.20372e+06 1.18186e+06 1.20372e+06 1.18186e+06 
1.18186e+06 0 878722 878722 1.18186e+06 1.50686e+06 1.50686e+06 0 1.20372e+06 
1.20372e+06 1.18186e+06 1.20372e+06 0 1.20372e+06 1.50686e+06 0 1.50686e+06 1.18186e+06 
0 1.18186e+06 878722 878722 1.18186e+06 1.20372e+06 1.20372e+06 0 1.50686e+06 
1.18186e+06 1.50686e+06 0 0 1.18186e+06 0 1.20372e+06 1.18186e+06 1.20372e+06 
1.20372e+06 1.18186e+06 1.18186e+06 1.18186e+06 0 0 1.18186e+06 1.20372e+06 0 
0 0 1.20372e+06 0 0 1.18186e+06 0 0 0 
0 0 0 0 0 0 0 0 1.20372e+06 
1.20372e+06 0 0 0 0 0 0 0 0 
0 1.18186e+06 0 863086 0 0 0 0 0 
0 1.18186e+06 0 863086 0 0 1.18186e+06 0 0 
0 0 0 0 0 0 0 0 1.20372e+06 
0 0 340638 0 0 0 0 0 0 
1.20372e+06 0 340638 0 0 0 0 0 0 
0 0 0 0 0 0 0 0 0 
0 0 0 1.20372e+06 0 1.20372e+06 0 0 0 
0 0 0 0 0 0 0 0 0 
0 0 0 0 0 0 0 0 0 
0 863086 0 0 0 0 1.20372e+06 0 0 
0 0 0 0 0 0 0 1.20372e+06 0 
0 0 0 0 0 0 0 0 1.20372e+06 
0 0 0 1.20372e+06 1.20372e+06 0 0 0 0 
0 0 0 0 0 0 0 0 0 
0 0 0 0 0 0 0 0 0 
0 0 0 0 0 0 0 0 0 
0 0 0 0 0 538084 0 0 0 
0 0 0 0 1.20372e+06 0 0 0 0 
0 0 0 0 0 1.20372e+06 0 0 0 
0 0 0 0 0 0 0 0 0 
340638 0 0 0 0 0 0 0 0 
340638 0 0 0 0 0 0 0 0 
0 0 0 0 0 0 0 0 340638 
0 0 0 0 643771 0 643771 340638 0 
0 0 0 0 0 0 0 0 0 
0 0 0 0 0 0 0 0 0 
0 0 0 0 0 0 0 0 0 